/*--------------------------------*- C++ -*----------------------------------*\
| =========                 |                                                 |
| \\      /  F ield         | foam-extend: Open Source CFD                    |
|  \\    /   O peration     | Version:     4.0                                |
|   \\  /    A nd           | Web:         http://www.foam-extend.org         |
|    \\/     M anipulation  |                                                 |
\*---------------------------------------------------------------------------*/
FoamFile
{
    version     2.0;
    format      ascii;
    class       volScalarField;
    location    "90";
    object      p;
}
// * * * * * * * * * * * * * * * * * * * * * * * * * * * * * * * * * * * * * //

dimensions      [0 2 -2 0 0 0 0];

internalField   nonuniform List<scalar> 
36000
(
-7.35473e-06
-7.38481e-06
-7.41675e-06
-7.44638e-06
-7.47411e-06
-7.50041e-06
-7.52533e-06
-7.54878e-06
-7.57073e-06
-7.59117e-06
-7.61012e-06
-7.62761e-06
-7.64368e-06
-7.65838e-06
-7.67178e-06
-7.68392e-06
-7.69484e-06
-7.70456e-06
-7.71308e-06
-7.72036e-06
-7.72631e-06
-7.7308e-06
-7.73361e-06
-7.73446e-06
-7.73295e-06
-7.72859e-06
-7.72075e-06
-7.70865e-06
-7.69117e-06
-7.667e-06
-7.36369e-06
-7.3934e-06
-7.42496e-06
-7.45424e-06
-7.48164e-06
-7.50764e-06
-7.53227e-06
-7.55546e-06
-7.57716e-06
-7.59738e-06
-7.61612e-06
-7.63342e-06
-7.64931e-06
-7.66386e-06
-7.67711e-06
-7.68913e-06
-7.69995e-06
-7.70958e-06
-7.71803e-06
-7.72527e-06
-7.73119e-06
-7.73568e-06
-7.73852e-06
-7.73942e-06
-7.73801e-06
-7.73377e-06
-7.72611e-06
-7.71429e-06
-7.69702e-06
-7.67193e-06
-7.38144e-06
-7.41043e-06
-7.44122e-06
-7.4698e-06
-7.49656e-06
-7.52196e-06
-7.54603e-06
-7.56869e-06
-7.58991e-06
-7.60967e-06
-7.62799e-06
-7.6449e-06
-7.66045e-06
-7.67469e-06
-7.68766e-06
-7.69943e-06
-7.71003e-06
-7.71949e-06
-7.7278e-06
-7.73493e-06
-7.7408e-06
-7.74528e-06
-7.74816e-06
-7.74916e-06
-7.74791e-06
-7.7439e-06
-7.73659e-06
-7.72531e-06
-7.70845e-06
-7.68154e-06
-7.40769e-06
-7.43561e-06
-7.46528e-06
-7.49284e-06
-7.51866e-06
-7.54317e-06
-7.5664e-06
-7.58828e-06
-7.60877e-06
-7.62786e-06
-7.64556e-06
-7.6619e-06
-7.67692e-06
-7.69068e-06
-7.70323e-06
-7.71462e-06
-7.72489e-06
-7.73407e-06
-7.74215e-06
-7.74912e-06
-7.75488e-06
-7.75933e-06
-7.76225e-06
-7.76337e-06
-7.76233e-06
-7.75864e-06
-7.7518e-06
-7.74126e-06
-7.72501e-06
-7.69541e-06
-7.44204e-06
-7.46858e-06
-7.4968e-06
-7.52303e-06
-7.54761e-06
-7.57096e-06
-7.59311e-06
-7.61397e-06
-7.6335e-06
-7.65169e-06
-7.66857e-06
-7.68415e-06
-7.69847e-06
-7.71159e-06
-7.72356e-06
-7.73443e-06
-7.74424e-06
-7.75303e-06
-7.76079e-06
-7.7675e-06
-7.7731e-06
-7.77746e-06
-7.78039e-06
-7.78163e-06
-7.78082e-06
-7.77749e-06
-7.77119e-06
-7.76154e-06
-7.74613e-06
-7.71289e-06
-7.48397e-06
-7.50884e-06
-7.53531e-06
-7.55993e-06
-7.58303e-06
-7.60497e-06
-7.62578e-06
-7.64539e-06
-7.66375e-06
-7.68085e-06
-7.6967e-06
-7.71133e-06
-7.72477e-06
-7.73708e-06
-7.74831e-06
-7.75851e-06
-7.76773e-06
-7.77599e-06
-7.78332e-06
-7.78968e-06
-7.79502e-06
-7.79922e-06
-7.8021e-06
-7.80341e-06
-7.8028e-06
-7.79983e-06
-7.79412e-06
-7.78545e-06
-7.77113e-06
-7.73301e-06
-7.53287e-06
-7.55583e-06
-7.58029e-06
-7.60306e-06
-7.62442e-06
-7.64474e-06
-7.664e-06
-7.68214e-06
-7.69912e-06
-7.71493e-06
-7.72956e-06
-7.74306e-06
-7.75544e-06
-7.76677e-06
-7.7771e-06
-7.78647e-06
-7.79494e-06
-7.80254e-06
-7.80929e-06
-7.81517e-06
-7.82013e-06
-7.82405e-06
-7.82679e-06
-7.82808e-06
-7.82762e-06
-7.82495e-06
-7.81981e-06
-7.81216e-06
-7.7992e-06
-7.75467e-06
-7.58806e-06
-7.60891e-06
-7.63113e-06
-7.65184e-06
-7.67128e-06
-7.68976e-06
-7.70728e-06
-7.72377e-06
-7.73919e-06
-7.75351e-06
-7.76675e-06
-7.77892e-06
-7.79007e-06
-7.80024e-06
-7.80949e-06
-7.81786e-06
-7.82541e-06
-7.83219e-06
-7.8382e-06
-7.84345e-06
-7.84788e-06
-7.85139e-06
-7.85384e-06
-7.85499e-06
-7.85455e-06
-7.85208e-06
-7.84742e-06
-7.84069e-06
-7.82939e-06
-7.77673e-06
-7.64881e-06
-7.66739e-06
-7.68721e-06
-7.70569e-06
-7.72304e-06
-7.73952e-06
-7.75513e-06
-7.7698e-06
-7.78347e-06
-7.79614e-06
-7.8078e-06
-7.81848e-06
-7.82822e-06
-7.83705e-06
-7.84503e-06
-7.85222e-06
-7.85868e-06
-7.86445e-06
-7.86955e-06
-7.87399e-06
-7.87771e-06
-7.88063e-06
-7.88261e-06
-7.88345e-06
-7.88287e-06
-7.88047e-06
-7.87613e-06
-7.87005e-06
-7.86091e-06
-7.79733e-06
-7.71438e-06
-7.73058e-06
-7.74787e-06
-7.76399e-06
-7.77912e-06
-7.79347e-06
-7.80703e-06
-7.81972e-06
-7.8315e-06
-7.84235e-06
-7.85228e-06
-7.86129e-06
-7.86943e-06
-7.87674e-06
-7.88327e-06
-7.8891e-06
-7.89427e-06
-7.89884e-06
-7.90283e-06
-7.90624e-06
-7.90905e-06
-7.91116e-06
-7.91247e-06
-7.91282e-06
-7.91191e-06
-7.90932e-06
-7.90497e-06
-7.8993e-06
-7.89389e-06
-7.81308e-06
-7.78402e-06
-7.79778e-06
-7.81247e-06
-7.82615e-06
-7.83896e-06
-7.85107e-06
-7.86246e-06
-7.87305e-06
-7.88281e-06
-7.8917e-06
-7.89972e-06
-7.9069e-06
-7.91327e-06
-7.91888e-06
-7.92378e-06
-7.92805e-06
-7.93173e-06
-7.93488e-06
-7.93754e-06
-7.93971e-06
-7.94136e-06
-7.94245e-06
-7.94287e-06
-7.94246e-06
-7.94095e-06
-7.93788e-06
-7.93304e-06
-7.92703e-06
-7.92976e-06
-7.82097e-06
-7.85704e-06
-7.86834e-06
-7.88038e-06
-7.89157e-06
-7.90201e-06
-7.91181e-06
-7.92094e-06
-7.92933e-06
-7.93694e-06
-7.94373e-06
-7.94972e-06
-7.95491e-06
-7.95934e-06
-7.96307e-06
-7.96615e-06
-7.96865e-06
-7.97064e-06
-7.97215e-06
-7.97324e-06
-7.97393e-06
-7.97418e-06
-7.97397e-06
-7.97322e-06
-7.97178e-06
-7.96941e-06
-7.96562e-06
-7.9599e-06
-7.95176e-06
-7.96655e-06
-7.83093e-06
-7.93276e-06
-7.94162e-06
-7.95103e-06
-7.95973e-06
-7.96776e-06
-7.9752e-06
-7.98201e-06
-7.98811e-06
-7.99348e-06
-7.99807e-06
-8.00188e-06
-8.00493e-06
-8.00727e-06
-8.00894e-06
-8.01002e-06
-8.01056e-06
-8.01062e-06
-8.01027e-06
-8.00953e-06
-8.00846e-06
-8.00705e-06
-8.00529e-06
-8.0031e-06
-8.00036e-06
-7.99684e-06
-7.99208e-06
-7.98587e-06
-7.97816e-06
-7.98457e-06
-7.85792e-06
-8.01061e-06
-8.01709e-06
-8.02392e-06
-8.03014e-06
-8.03576e-06
-8.04082e-06
-8.04526e-06
-8.04903e-06
-8.05207e-06
-8.05435e-06
-8.05587e-06
-8.05665e-06
-8.05675e-06
-8.05622e-06
-8.0551e-06
-8.05346e-06
-8.05136e-06
-8.04888e-06
-8.04607e-06
-8.04298e-06
-8.03966e-06
-8.03609e-06
-8.03221e-06
-8.0279e-06
-8.02294e-06
-8.01692e-06
-8.00996e-06
-8.00223e-06
-8.0019e-06
-7.8792e-06
-8.0901e-06
-8.09428e-06
-8.0986e-06
-8.1024e-06
-8.10564e-06
-8.10833e-06
-8.11039e-06
-8.11176e-06
-8.1124e-06
-8.11229e-06
-8.11143e-06
-8.10984e-06
-8.10757e-06
-8.10464e-06
-8.10111e-06
-8.09706e-06
-8.09257e-06
-8.08772e-06
-8.08262e-06
-8.0773e-06
-8.07182e-06
-8.06618e-06
-8.06035e-06
-8.0542e-06
-8.04753e-06
-8.03997e-06
-8.03181e-06
-8.02331e-06
-8.01952e-06
-7.89333e-06
-8.17082e-06
-8.17281e-06
-8.17473e-06
-8.17618e-06
-8.17711e-06
-8.17745e-06
-8.17714e-06
-8.1761e-06
-8.1743e-06
-8.17172e-06
-8.16839e-06
-8.16431e-06
-8.15948e-06
-8.15395e-06
-8.14781e-06
-8.14117e-06
-8.1341e-06
-8.1267e-06
-8.11907e-06
-8.11129e-06
-8.10341e-06
-8.09546e-06
-8.0874e-06
-8.07917e-06
-8.07054e-06
-8.06117e-06
-8.05148e-06
-8.04175e-06
-8.03573e-06
-7.90212e-06
-8.25248e-06
-8.2524e-06
-8.25204e-06
-8.25123e-06
-8.24989e-06
-8.24792e-06
-8.24525e-06
-8.24181e-06
-8.23756e-06
-8.23247e-06
-8.22655e-06
-8.2198e-06
-8.21227e-06
-8.20402e-06
-8.19515e-06
-8.18575e-06
-8.17592e-06
-8.16577e-06
-8.15541e-06
-8.14493e-06
-8.13442e-06
-8.12391e-06
-8.11341e-06
-8.10285e-06
-8.09204e-06
-8.08063e-06
-8.06914e-06
-8.05786e-06
-8.05005e-06
-7.90641e-06
-8.33489e-06
-8.3329e-06
-8.33037e-06
-8.3274e-06
-8.32386e-06
-8.31962e-06
-8.3146e-06
-8.30873e-06
-8.30198e-06
-8.29432e-06
-8.28574e-06
-8.27627e-06
-8.26596e-06
-8.25489e-06
-8.24314e-06
-8.23082e-06
-8.21805e-06
-8.20495e-06
-8.19165e-06
-8.17828e-06
-8.16494e-06
-8.15167e-06
-8.13852e-06
-8.12542e-06
-8.11222e-06
-8.09856e-06
-8.08504e-06
-8.07195e-06
-8.06265e-06
-7.90668e-06
-8.41803e-06
-8.41424e-06
-8.40969e-06
-8.40466e-06
-8.39899e-06
-8.39253e-06
-8.38519e-06
-8.3769e-06
-8.36763e-06
-8.35735e-06
-8.34606e-06
-8.33379e-06
-8.32061e-06
-8.30659e-06
-8.29182e-06
-8.27643e-06
-8.26056e-06
-8.24435e-06
-8.22795e-06
-8.21151e-06
-8.19514e-06
-8.17894e-06
-8.16295e-06
-8.14715e-06
-8.13138e-06
-8.11529e-06
-8.09957e-06
-8.08444e-06
-8.07386e-06
-7.90335e-06
-8.50195e-06
-8.49651e-06
-8.49004e-06
-8.48304e-06
-8.47532e-06
-8.4667e-06
-8.45706e-06
-8.44636e-06
-8.43456e-06
-8.42162e-06
-8.40757e-06
-8.39244e-06
-8.37629e-06
-8.35922e-06
-8.34132e-06
-8.32273e-06
-8.30362e-06
-8.28416e-06
-8.26451e-06
-8.24485e-06
-8.22531e-06
-8.20602e-06
-8.18705e-06
-8.16839e-06
-8.14991e-06
-8.13125e-06
-8.11318e-06
-8.09583e-06
-8.08412e-06
-7.89686e-06
-8.58683e-06
-8.57984e-06
-8.57157e-06
-8.5627e-06
-8.55299e-06
-8.54223e-06
-8.53033e-06
-8.51722e-06
-8.50287e-06
-8.48726e-06
-8.4704e-06
-8.45235e-06
-8.43316e-06
-8.41294e-06
-8.3918e-06
-8.36992e-06
-8.34746e-06
-8.32463e-06
-8.30161e-06
-8.27859e-06
-8.25577e-06
-8.23327e-06
-8.21119e-06
-8.18957e-06
-8.16827e-06
-8.14692e-06
-8.12635e-06
-8.10661e-06
-8.0939e-06
-7.8877e-06
-8.67292e-06
-8.66448e-06
-8.65451e-06
-8.64382e-06
-8.63217e-06
-8.61933e-06
-8.60518e-06
-8.58966e-06
-8.57275e-06
-8.55444e-06
-8.53474e-06
-8.51371e-06
-8.49141e-06
-8.46796e-06
-8.44352e-06
-8.41825e-06
-8.39236e-06
-8.36606e-06
-8.33957e-06
-8.31312e-06
-8.2869e-06
-8.2611e-06
-8.23585e-06
-8.21117e-06
-8.18694e-06
-8.16278e-06
-8.13958e-06
-8.11729e-06
-8.10368e-06
-7.87644e-06
-8.76057e-06
-8.75074e-06
-8.73914e-06
-8.72669e-06
-8.71314e-06
-8.69822e-06
-8.68183e-06
-8.6639e-06
-8.64442e-06
-8.62338e-06
-8.6008e-06
-8.57674e-06
-8.55128e-06
-8.52456e-06
-8.49675e-06
-8.46803e-06
-8.43863e-06
-8.4088e-06
-8.37877e-06
-8.34881e-06
-8.31915e-06
-8.28999e-06
-8.26148e-06
-8.23366e-06
-8.20641e-06
-8.17931e-06
-8.15333e-06
-8.12829e-06
-8.11378e-06
-7.86372e-06
-8.85018e-06
-8.83901e-06
-8.8258e-06
-8.81162e-06
-8.79618e-06
-8.7792e-06
-8.76056e-06
-8.74022e-06
-8.71815e-06
-8.69435e-06
-8.66886e-06
-8.64173e-06
-8.61307e-06
-8.58303e-06
-8.5518e-06
-8.51958e-06
-8.48664e-06
-8.45322e-06
-8.41962e-06
-8.38611e-06
-8.35296e-06
-8.32039e-06
-8.28855e-06
-8.25751e-06
-8.22713e-06
-8.19695e-06
-8.168e-06
-8.13995e-06
-8.12434e-06
-7.85035e-06
-8.9422e-06
-8.9297e-06
-8.91489e-06
-8.89898e-06
-8.88165e-06
-8.86259e-06
-8.84169e-06
-8.8189e-06
-8.79422e-06
-8.76764e-06
-8.7392e-06
-8.70897e-06
-8.67707e-06
-8.64368e-06
-8.609e-06
-8.57326e-06
-8.53673e-06
-8.49971e-06
-8.46252e-06
-8.42544e-06
-8.38877e-06
-8.35274e-06
-8.31752e-06
-8.28316e-06
-8.24954e-06
-8.21611e-06
-8.18392e-06
-8.1525e-06
-8.1352e-06
-7.83744e-06
-9.0371e-06
-9.02325e-06
-9.00683e-06
-8.98915e-06
-8.9699e-06
-8.94873e-06
-8.92554e-06
-8.90028e-06
-8.87296e-06
-8.84356e-06
-8.81213e-06
-8.77877e-06
-8.74362e-06
-8.70686e-06
-8.6687e-06
-8.62942e-06
-8.58931e-06
-8.54868e-06
-8.50788e-06
-8.46722e-06
-8.427e-06
-8.38746e-06
-8.3488e-06
-8.31104e-06
-8.27402e-06
-8.23711e-06
-8.20131e-06
-8.16606e-06
-8.14587e-06
-7.82674e-06
-9.13537e-06
-9.12012e-06
-9.10202e-06
-9.08253e-06
-9.0613e-06
-9.03798e-06
-9.01245e-06
-8.98468e-06
-8.95466e-06
-8.9224e-06
-8.88796e-06
-8.85145e-06
-8.81302e-06
-8.77287e-06
-8.73124e-06
-8.68842e-06
-8.64473e-06
-8.60051e-06
-8.55609e-06
-8.51183e-06
-8.46803e-06
-8.42495e-06
-8.38277e-06
-8.34151e-06
-8.3009e-06
-8.26025e-06
-8.22033e-06
-8.18057e-06
-8.15439e-06
-7.81914e-06
-9.23747e-06
-9.22074e-06
-9.20088e-06
-9.1795e-06
-9.15622e-06
-9.13068e-06
-9.10275e-06
-9.07242e-06
-9.03965e-06
-9.00449e-06
-8.96701e-06
-8.92732e-06
-8.8856e-06
-8.84206e-06
-8.79696e-06
-8.75061e-06
-8.70335e-06
-8.65552e-06
-8.60749e-06
-8.55962e-06
-8.51222e-06
-8.46555e-06
-8.41978e-06
-8.37487e-06
-8.33048e-06
-8.2858e-06
-8.24114e-06
-8.19523e-06
-8.15343e-06
-7.80812e-06
-9.34386e-06
-9.32553e-06
-9.30379e-06
-9.28042e-06
-9.25501e-06
-9.22716e-06
-9.19677e-06
-9.16379e-06
-9.12823e-06
-9.09013e-06
-9.04957e-06
-9.00668e-06
-8.96166e-06
-8.91472e-06
-8.86616e-06
-8.81629e-06
-8.76546e-06
-8.71403e-06
-8.66239e-06
-8.61089e-06
-8.55986e-06
-8.50955e-06
-8.46008e-06
-8.4114e-06
-8.36308e-06
-8.31423e-06
-8.26414e-06
-8.2091e-06
-8.13166e-06
-7.78944e-06
-9.45491e-06
-9.43487e-06
-9.41112e-06
-9.38563e-06
-9.35798e-06
-9.32773e-06
-9.29477e-06
-9.25908e-06
-9.22066e-06
-9.17957e-06
-9.1359e-06
-9.0898e-06
-9.04146e-06
-8.99114e-06
-8.93912e-06
-8.88572e-06
-8.83133e-06
-8.77631e-06
-8.72104e-06
-8.66589e-06
-8.61118e-06
-8.55714e-06
-8.50388e-06
-8.45134e-06
-8.3991e-06
-8.34644e-06
-8.29125e-06
-8.22771e-06
-8.10983e-06
-7.88265e-06
-9.57099e-06
-9.54907e-06
-9.52315e-06
-9.49542e-06
-9.4654e-06
-9.43264e-06
-9.39703e-06
-9.35854e-06
-9.3172e-06
-9.27307e-06
-9.22625e-06
-9.17691e-06
-9.12525e-06
-9.07153e-06
-9.01604e-06
-8.95913e-06
-8.90118e-06
-8.84255e-06
-8.78364e-06
-8.7248e-06
-8.66632e-06
-8.60843e-06
-8.55124e-06
-8.49472e-06
-8.43868e-06
-8.3831e-06
-8.32592e-06
-8.26841e-06
-8.17758e-06
-8.43857e-06
-9.69235e-06
-9.6684e-06
-9.64015e-06
-9.61002e-06
-9.5775e-06
-9.54212e-06
-9.50374e-06
-9.46237e-06
-9.41805e-06
-9.37082e-06
-9.32083e-06
-9.26821e-06
-9.21321e-06
-9.15607e-06
-9.09712e-06
-9.0367e-06
-8.97517e-06
-8.91293e-06
-8.85033e-06
-8.7877e-06
-8.72533e-06
-8.66339e-06
-8.60197e-06
-8.54106e-06
-8.48057e-06
-8.42079e-06
-8.36006e-06
-8.30488e-06
-8.22809e-06
-8.55373e-06
-9.81921e-06
-9.79304e-06
-9.76228e-06
-9.7296e-06
-9.69445e-06
-9.65631e-06
-9.61508e-06
-9.57074e-06
-9.52335e-06
-9.47299e-06
-9.41976e-06
-9.36384e-06
-9.30547e-06
-9.24491e-06
-9.18249e-06
-9.11854e-06
-9.05342e-06
-8.98751e-06
-8.92114e-06
-8.85461e-06
-8.78815e-06
-8.72189e-06
-8.65585e-06
-8.58994e-06
-8.52404e-06
-8.45844e-06
-8.39134e-06
-8.33022e-06
-8.24095e-06
-8.5085e-06
-9.95166e-06
-9.92311e-06
-9.88966e-06
-9.85426e-06
-9.81634e-06
-9.77533e-06
-9.73113e-06
-9.68375e-06
-9.63322e-06
-9.57965e-06
-9.52314e-06
-9.4639e-06
-9.40214e-06
-9.33815e-06
-9.27223e-06
-9.20472e-06
-9.13597e-06
-9.06632e-06
-8.99606e-06
-8.92546e-06
-8.85467e-06
-8.78373e-06
-8.71258e-06
-8.641e-06
-8.56871e-06
-8.49584e-06
-8.42013e-06
-8.34814e-06
-8.24177e-06
-8.45655e-06
-1.00898e-05
-1.00586e-05
-1.00223e-05
-9.98404e-06
-9.94321e-06
-9.89922e-06
-9.85195e-06
-9.80142e-06
-9.74769e-06
-9.69085e-06
-9.63103e-06
-9.56842e-06
-9.50325e-06
-9.43579e-06
-9.36635e-06
-9.29524e-06
-9.22278e-06
-9.14928e-06
-9.07499e-06
-9.0001e-06
-8.92466e-06
-8.84865e-06
-8.77182e-06
-8.69384e-06
-8.61424e-06
-8.53272e-06
-8.44664e-06
-8.36155e-06
-8.23848e-06
-8.4061e-06
-1.02334e-05
-1.01996e-05
-1.01602e-05
-1.01189e-05
-1.0075e-05
-1.00279e-05
-9.9775e-06
-9.92375e-06
-9.86675e-06
-9.80659e-06
-9.74341e-06
-9.6774e-06
-9.60878e-06
-9.53782e-06
-9.46481e-06
-9.39003e-06
-9.31377e-06
-9.23628e-06
-9.15776e-06
-9.07828e-06
-8.99785e-06
-8.91626e-06
-8.83314e-06
-8.74802e-06
-8.66014e-06
-8.56886e-06
-8.47118e-06
-8.37161e-06
-8.23246e-06
-8.35479e-06
-1.03825e-05
-1.03458e-05
-1.03032e-05
-1.02587e-05
-1.02117e-05
-1.01614e-05
-1.01077e-05
-1.00506e-05
-9.9903e-06
-9.92678e-06
-9.8602e-06
-9.79075e-06
-9.71865e-06
-9.64415e-06
-9.56749e-06
-9.48895e-06
-9.40876e-06
-9.3271e-06
-9.24408e-06
-9.1597e-06
-9.07383e-06
-8.98612e-06
-8.89608e-06
-8.803e-06
-8.7059e-06
-8.60381e-06
-8.49366e-06
-8.37886e-06
-8.22411e-06
-8.30285e-06
-1.05368e-05
-1.0497e-05
-1.04511e-05
-1.04033e-05
-1.0353e-05
-1.02994e-05
-1.02424e-05
-1.01819e-05
-1.01182e-05
-1.00513e-05
-9.98127e-06
-9.90834e-06
-9.83271e-06
-9.75459e-06
-9.67422e-06
-9.59179e-06
-9.5075e-06
-9.42144e-06
-9.33363e-06
-9.24395e-06
-9.15214e-06
-9.05771e-06
-8.96005e-06
-8.85816e-06
-8.7509e-06
-8.6372e-06
-8.51371e-06
-8.38331e-06
-8.21351e-06
-8.25085e-06
-1.06959e-05
-1.06529e-05
-1.06035e-05
-1.05524e-05
-1.04987e-05
-1.04417e-05
-1.03813e-05
-1.03174e-05
-1.02503e-05
-1.01799e-05
-1.01064e-05
-1.003e-05
-9.95074e-06
-9.86894e-06
-9.78473e-06
-9.69827e-06
-9.60966e-06
-9.51892e-06
-9.42596e-06
-9.33054e-06
-9.23223e-06
-9.13047e-06
-9.02439e-06
-8.9129e-06
-8.79465e-06
-8.66844e-06
-8.53102e-06
-8.38477e-06
-8.20042e-06
-8.19873e-06
-1.08595e-05
-1.08132e-05
-1.07602e-05
-1.07055e-05
-1.06484e-05
-1.0588e-05
-1.05241e-05
-1.04568e-05
-1.03862e-05
-1.03123e-05
-1.02353e-05
-1.01553e-05
-1.00724e-05
-9.98686e-06
-9.89868e-06
-9.808e-06
-9.71483e-06
-9.6191e-06
-9.52058e-06
-9.41888e-06
-9.31351e-06
-9.20368e-06
-9.08841e-06
-8.96645e-06
-8.83646e-06
-8.69698e-06
-8.5451e-06
-8.38286e-06
-8.18432e-06
-8.14602e-06
-1.1027e-05
-1.09774e-05
-1.09206e-05
-1.08624e-05
-1.08018e-05
-1.07379e-05
-1.06705e-05
-1.05997e-05
-1.05256e-05
-1.04483e-05
-1.03677e-05
-1.02841e-05
-1.01975e-05
-1.0108e-05
-1.00157e-05
-9.92055e-06
-9.82252e-06
-9.7214e-06
-9.61685e-06
-9.50835e-06
-9.39524e-06
-9.27658e-06
-9.15128e-06
-9.01809e-06
-8.87549e-06
-8.72213e-06
-8.55539e-06
-8.37707e-06
-8.16464e-06
-8.09204e-06
-1.11979e-05
-1.11448e-05
-1.10843e-05
-1.10224e-05
-1.09583e-05
-1.08909e-05
-1.082e-05
-1.07457e-05
-1.06681e-05
-1.05872e-05
-1.05031e-05
-1.04158e-05
-1.03253e-05
-1.02318e-05
-1.01352e-05
-1.00354e-05
-9.93215e-06
-9.82522e-06
-9.7141e-06
-9.5982e-06
-9.47664e-06
-9.3484e-06
-9.21225e-06
-9.06697e-06
-8.91103e-06
-8.74322e-06
-8.56127e-06
-8.36686e-06
-8.14074e-06
-8.03604e-06
-1.13715e-05
-1.13149e-05
-1.12505e-05
-1.1185e-05
-1.11173e-05
-1.10464e-05
-1.0972e-05
-1.08943e-05
-1.08132e-05
-1.07287e-05
-1.0641e-05
-1.05499e-05
-1.04555e-05
-1.03578e-05
-1.02567e-05
-1.01518e-05
-1.0043e-05
-9.9298e-06
-9.81159e-06
-9.68759e-06
-9.55683e-06
-9.41818e-06
-9.27046e-06
-9.11226e-06
-8.94232e-06
-8.75955e-06
-8.56212e-06
-8.35165e-06
-8.112e-06
-7.97713e-06
-1.1547e-05
-1.14868e-05
-1.14186e-05
-1.13495e-05
-1.12782e-05
-1.12038e-05
-1.1126e-05
-1.10448e-05
-1.09602e-05
-1.08722e-05
-1.07807e-05
-1.06859e-05
-1.05874e-05
-1.04854e-05
-1.03794e-05
-1.02692e-05
-1.01544e-05
-1.00344e-05
-9.90842e-06
-9.77561e-06
-9.63486e-06
-9.48504e-06
-9.32487e-06
-9.15308e-06
-8.96854e-06
-8.77042e-06
-8.55734e-06
-8.33096e-06
-8.07799e-06
-7.91454e-06
-1.17236e-05
-1.16598e-05
-1.15878e-05
-1.1515e-05
-1.14403e-05
-1.13624e-05
-1.12812e-05
-1.11965e-05
-1.11084e-05
-1.10169e-05
-1.09217e-05
-1.08229e-05
-1.07203e-05
-1.06136e-05
-1.05026e-05
-1.03867e-05
-1.02654e-05
-1.0138e-05
-1.00037e-05
-9.86131e-06
-9.70979e-06
-9.54799e-06
-9.3746e-06
-9.18855e-06
-8.98891e-06
-8.77514e-06
-8.54636e-06
-8.30435e-06
-8.03852e-06
-7.84851e-06
-1.19003e-05
-1.1833e-05
-1.17572e-05
-1.16808e-05
-1.16027e-05
-1.15214e-05
-1.14367e-05
-1.13487e-05
-1.12571e-05
-1.1162e-05
-1.10632e-05
-1.09604e-05
-1.08534e-05
-1.07419e-05
-1.06254e-05
-1.05033e-05
-1.03751e-05
-1.02397e-05
-1.00963e-05
-9.94359e-06
-9.78059e-06
-9.60598e-06
-9.41868e-06
-9.21778e-06
-9.00263e-06
-8.77301e-06
-8.52857e-06
-8.27128e-06
-7.993e-06
-7.77903e-06
-1.20761e-05
-1.20053e-05
-1.19258e-05
-1.18459e-05
-1.17644e-05
-1.16798e-05
-1.15919e-05
-1.15005e-05
-1.14055e-05
-1.13068e-05
-1.12041e-05
-1.10972e-05
-1.09857e-05
-1.08691e-05
-1.07468e-05
-1.06182e-05
-1.04824e-05
-1.03384e-05
-1.01851e-05
-1.00214e-05
-9.84609e-06
-9.65798e-06
-9.45615e-06
-9.23991e-06
-9.00892e-06
-8.76336e-06
-8.50341e-06
-8.23123e-06
-7.94082e-06
-7.70516e-06
-1.22499e-05
-1.21757e-05
-1.20926e-05
-1.20093e-05
-1.19245e-05
-1.18367e-05
-1.17455e-05
-1.16509e-05
-1.15525e-05
-1.14502e-05
-1.13437e-05
-1.12326e-05
-1.11163e-05
-1.09943e-05
-1.08658e-05
-1.07301e-05
-1.05862e-05
-1.04329e-05
-1.02691e-05
-1.00936e-05
-9.90524e-06
-9.70296e-06
-9.48603e-06
-9.25405e-06
-9.00704e-06
-8.74557e-06
-8.47033e-06
-8.18372e-06
-7.88156e-06
-7.62629e-06
-1.24206e-05
-1.2343e-05
-1.22564e-05
-1.21698e-05
-1.20818e-05
-1.1991e-05
-1.18967e-05
-1.17988e-05
-1.16971e-05
-1.15913e-05
-1.14808e-05
-1.13653e-05
-1.1244e-05
-1.11163e-05
-1.09813e-05
-1.0838e-05
-1.06853e-05
-1.05221e-05
-1.03471e-05
-1.0159e-05
-9.95691e-06
-9.73986e-06
-9.50738e-06
-9.25938e-06
-8.99626e-06
-8.71902e-06
-8.42883e-06
-8.12833e-06
-7.8149e-06
-7.54214e-06
-1.25867e-05
-1.2506e-05
-1.24159e-05
-1.23262e-05
-1.22353e-05
-1.21415e-05
-1.20442e-05
-1.19432e-05
-1.18383e-05
-1.17288e-05
-1.16143e-05
-1.14942e-05
-1.13677e-05
-1.12339e-05
-1.10919e-05
-1.09405e-05
-1.07785e-05
-1.06046e-05
-1.04177e-05
-1.02164e-05
-9.99998e-06
-9.76766e-06
-9.51928e-06
-9.25509e-06
-8.97591e-06
-8.68315e-06
-8.37845e-06
-8.06465e-06
-7.74049e-06
-7.45218e-06
-1.2747e-05
-1.26632e-05
-1.257e-05
-1.24773e-05
-1.23836e-05
-1.2287e-05
-1.21868e-05
-1.20829e-05
-1.19746e-05
-1.18616e-05
-1.1743e-05
-1.16181e-05
-1.14861e-05
-1.1346e-05
-1.11965e-05
-1.10364e-05
-1.08644e-05
-1.06793e-05
-1.04797e-05
-1.02647e-05
-1.00333e-05
-9.78535e-06
-9.52083e-06
-9.24042e-06
-8.94535e-06
-8.63744e-06
-8.31875e-06
-7.99233e-06
-7.65798e-06
-7.35571e-06
-1.29e-05
-1.28134e-05
-1.27172e-05
-1.26218e-05
-1.25254e-05
-1.24261e-05
-1.23233e-05
-1.22164e-05
-1.2105e-05
-1.19883e-05
-1.18655e-05
-1.17357e-05
-1.15979e-05
-1.1451e-05
-1.12935e-05
-1.11242e-05
-1.09417e-05
-1.07447e-05
-1.05319e-05
-1.03025e-05
-1.00559e-05
-9.79194e-06
-9.51118e-06
-9.21465e-06
-8.904e-06
-8.58143e-06
-8.24938e-06
-7.91109e-06
-7.56734e-06
-7.25282e-06
-1.30443e-05
-1.2955e-05
-1.2856e-05
-1.27581e-05
-1.26593e-05
-1.25576e-05
-1.24522e-05
-1.23425e-05
-1.22279e-05
-1.21075e-05
-1.19804e-05
-1.18456e-05
-1.17017e-05
-1.15475e-05
-1.13817e-05
-1.12026e-05
-1.1009e-05
-1.07995e-05
-1.0573e-05
-1.03288e-05
-1.00665e-05
-9.78649e-06
-9.48953e-06
-9.17711e-06
-8.8513e-06
-8.51468e-06
-8.17e-06
-7.82072e-06
-7.46845e-06
-7.14282e-06
-1.31783e-05
-1.30866e-05
-1.29851e-05
-1.28848e-05
-1.27839e-05
-1.26799e-05
-1.25721e-05
-1.24597e-05
-1.2342e-05
-1.22179e-05
-1.20864e-05
-1.19462e-05
-1.17959e-05
-1.16342e-05
-1.14594e-05
-1.12702e-05
-1.10649e-05
-1.08424e-05
-1.06017e-05
-1.03424e-05
-1.00643e-05
-9.76813e-06
-9.45514e-06
-9.1272e-06
-8.78678e-06
-8.4368e-06
-8.08032e-06
-7.7211e-06
-7.36093e-06
-7.02345e-06
-1.33004e-05
-1.32065e-05
-1.31027e-05
-1.30005e-05
-1.28975e-05
-1.27916e-05
-1.26815e-05
-1.25665e-05
-1.24457e-05
-1.23179e-05
-1.21818e-05
-1.20361e-05
-1.18792e-05
-1.17095e-05
-1.15254e-05
-1.13254e-05
-1.1108e-05
-1.08721e-05
-1.06169e-05
-1.03421e-05
-1.00482e-05
-9.73602e-06
-9.40729e-06
-9.06433e-06
-8.70997e-06
-8.34743e-06
-7.98012e-06
-7.61202e-06
-7.24374e-06
-6.89483e-06
-1.34089e-05
-1.33131e-05
-1.32074e-05
-1.31034e-05
-1.29988e-05
-1.2891e-05
-1.27789e-05
-1.26614e-05
-1.25376e-05
-1.2406e-05
-1.22652e-05
-1.21137e-05
-1.19498e-05
-1.17718e-05
-1.1578e-05
-1.13669e-05
-1.11369e-05
-1.08873e-05
-1.06173e-05
-1.03271e-05
-1.00173e-05
-9.68937e-06
-9.34537e-06
-8.988e-06
-8.62046e-06
-8.24626e-06
-7.86918e-06
-7.49295e-06
-7.1159e-06
-6.75894e-06
-1.35023e-05
-1.34049e-05
-1.32976e-05
-1.31921e-05
-1.30861e-05
-1.29767e-05
-1.28626e-05
-1.27428e-05
-1.2616e-05
-1.24806e-05
-1.2335e-05
-1.21775e-05
-1.20064e-05
-1.18197e-05
-1.16159e-05
-1.13932e-05
-1.11504e-05
-1.08867e-05
-1.06019e-05
-1.02962e-05
-9.97082e-06
-9.6275e-06
-9.26878e-06
-8.89774e-06
-8.51788e-06
-8.13303e-06
-7.74721e-06
-7.36285e-06
-6.97876e-06
-6.61561e-06
-1.35788e-05
-1.34801e-05
-1.33715e-05
-1.32649e-05
-1.31577e-05
-1.3047e-05
-1.29312e-05
-1.28092e-05
-1.26793e-05
-1.254e-05
-1.23895e-05
-1.22259e-05
-1.20473e-05
-1.18517e-05
-1.16374e-05
-1.14029e-05
-1.11471e-05
-1.08693e-05
-1.05696e-05
-1.02486e-05
-9.90791e-06
-9.54974e-06
-9.177e-06
-8.79313e-06
-8.40193e-06
-8.00754e-06
-7.61383e-06
-7.22108e-06
-6.83295e-06
-6.46406e-06
-1.36368e-05
-1.35371e-05
-1.34276e-05
-1.33202e-05
-1.32121e-05
-1.31003e-05
-1.2983e-05
-1.28588e-05
-1.2726e-05
-1.25829e-05
-1.24273e-05
-1.22574e-05
-1.2071e-05
-1.18662e-05
-1.16413e-05
-1.13948e-05
-1.11258e-05
-1.08338e-05
-1.05193e-05
-1.01834e-05
-9.82789e-06
-9.45552e-06
-9.06957e-06
-8.67381e-06
-8.27235e-06
-7.86952e-06
-7.46818e-06
-7.0684e-06
-6.67808e-06
-6.30388e-06
-1.36746e-05
-1.35743e-05
-1.34643e-05
-1.33564e-05
-1.32477e-05
-1.3135e-05
-1.30164e-05
-1.28901e-05
-1.27545e-05
-1.26074e-05
-1.24468e-05
-1.22704e-05
-1.20761e-05
-1.18619e-05
-1.16262e-05
-1.13676e-05
-1.10853e-05
-1.07793e-05
-1.04503e-05
-1.00998e-05
-9.73013e-06
-9.34434e-06
-8.9461e-06
-8.5395e-06
-8.12893e-06
-7.71859e-06
-7.30961e-06
-6.90561e-06
-6.51375e-06
-6.13467e-06
-7.63584e-06
-7.58771e-06
-7.53085e-06
-7.45874e-06
-7.37016e-06
-7.26228e-06
-7.13109e-06
-6.97577e-06
-6.79312e-06
-6.57981e-06
-6.3335e-06
-6.05224e-06
-5.73482e-06
-5.38099e-06
-4.99173e-06
-4.56944e-06
-4.11811e-06
-3.64341e-06
-3.15264e-06
-2.65398e-06
-2.15729e-06
-1.67263e-06
-1.21012e-06
-7.78727e-07
-3.86162e-07
-3.91019e-08
2.57935e-07
5.02626e-07
6.94797e-07
8.36241e-07
9.3047e-07
9.82321e-07
9.97525e-07
9.82322e-07
9.43082e-07
8.86059e-07
8.17099e-07
7.41481e-07
6.63677e-07
5.87242e-07
5.14707e-07
4.47681e-07
3.86935e-07
3.32702e-07
2.84754e-07
2.42747e-07
2.06058e-07
1.74264e-07
1.46597e-07
1.22825e-07
1.02056e-07
8.44527e-08
6.88148e-08
5.59304e-08
4.39245e-08
3.46276e-08
2.48322e-08
1.88657e-08
8.70491e-09
9.74099e-09
-7.64346e-06
-7.59394e-06
-7.53743e-06
-7.46548e-06
-7.37716e-06
-7.26955e-06
-7.13904e-06
-6.98379e-06
-6.80139e-06
-6.58846e-06
-6.34252e-06
-6.0616e-06
-5.74446e-06
-5.39084e-06
-5.00172e-06
-4.57947e-06
-4.12808e-06
-3.65323e-06
-3.16221e-06
-2.66316e-06
-2.16607e-06
-1.68092e-06
-1.21786e-06
-7.85886e-07
-3.92714e-07
-4.50403e-08
2.52615e-07
4.97912e-07
6.90658e-07
8.32652e-07
9.27404e-07
9.79725e-07
9.95378e-07
9.80577e-07
9.41674e-07
8.84969e-07
8.16269e-07
7.40851e-07
6.63213e-07
5.86904e-07
5.14462e-07
4.47502e-07
3.86814e-07
3.32615e-07
2.84696e-07
2.42698e-07
2.06021e-07
1.74236e-07
1.46571e-07
1.22806e-07
1.02039e-07
8.44364e-08
6.8808e-08
5.59234e-08
4.39218e-08
3.4618e-08
2.48295e-08
1.88654e-08
8.70404e-09
9.74161e-09
-7.65842e-06
-7.60608e-06
-7.5503e-06
-7.4787e-06
-7.3909e-06
-7.28383e-06
-7.15433e-06
-6.99963e-06
-6.8178e-06
-6.60557e-06
-6.36034e-06
-6.08007e-06
-5.76349e-06
-5.4103e-06
-5.02145e-06
-4.59931e-06
-4.14783e-06
-3.67269e-06
-3.18114e-06
-2.68145e-06
-2.18351e-06
-1.69741e-06
-1.23328e-06
-8.00151e-07
-4.05774e-07
-5.6883e-08
2.41992e-07
4.88486e-07
6.82387e-07
8.2548e-07
9.21265e-07
9.74545e-07
9.91077e-07
9.77072e-07
9.38875e-07
8.82778e-07
8.14589e-07
7.39589e-07
6.62279e-07
5.86223e-07
5.13971e-07
4.4715e-07
3.8656e-07
3.32432e-07
2.84562e-07
2.42599e-07
2.05947e-07
1.74178e-07
1.46526e-07
1.22769e-07
1.0201e-07
8.4412e-08
6.87878e-08
5.59062e-08
4.39087e-08
3.46074e-08
2.48227e-08
1.88571e-08
8.70345e-09
9.73126e-09
-7.68019e-06
-7.62357e-06
-7.56896e-06
-7.4979e-06
-7.4109e-06
-7.30468e-06
-7.17637e-06
-7.02277e-06
-6.84191e-06
-6.63072e-06
-6.38652e-06
-6.10721e-06
-5.79147e-06
-5.43894e-06
-5.05052e-06
-4.62855e-06
-4.17696e-06
-3.70143e-06
-3.20914e-06
-2.70849e-06
-2.20936e-06
-1.72185e-06
-1.25616e-06
-8.21334e-07
-4.25186e-07
-7.44965e-08
2.26181e-07
4.74447e-07
6.70061e-07
8.14783e-07
9.12101e-07
9.66813e-07
9.84654e-07
9.71834e-07
9.34689e-07
8.79501e-07
8.12075e-07
7.377e-07
6.60881e-07
5.85203e-07
5.13235e-07
4.46621e-07
3.86181e-07
3.32158e-07
2.84363e-07
2.42452e-07
2.05836e-07
1.74092e-07
1.46458e-07
1.22714e-07
1.01965e-07
8.43752e-08
6.87577e-08
5.58808e-08
4.38892e-08
3.45913e-08
2.48124e-08
1.88449e-08
8.70277e-09
9.71607e-09
-7.70793e-06
-7.64566e-06
-7.59271e-06
-7.52237e-06
-7.43648e-06
-7.33143e-06
-7.20459e-06
-7.05246e-06
-6.87301e-06
-6.66323e-06
-6.42043e-06
-6.14241e-06
-5.8278e-06
-5.47617e-06
-5.08836e-06
-4.66667e-06
-4.21498e-06
-3.73898e-06
-3.24578e-06
-2.74393e-06
-2.24327e-06
-1.75396e-06
-1.28624e-06
-8.49212e-07
-4.50759e-07
-9.77193e-08
2.05321e-07
4.55909e-07
6.53773e-07
8.00641e-07
8.99979e-07
9.56574e-07
9.76144e-07
9.64891e-07
9.29138e-07
8.75152e-07
8.08738e-07
7.35189e-07
6.59023e-07
5.83847e-07
5.12255e-07
4.45919e-07
3.85676e-07
3.31795e-07
2.84098e-07
2.42255e-07
2.05688e-07
1.73976e-07
1.46368e-07
1.22641e-07
1.01906e-07
8.4326e-08
6.87176e-08
5.58469e-08
4.38632e-08
3.45697e-08
2.47987e-08
1.88286e-08
8.70201e-09
9.69604e-09
-7.74066e-06
-7.67139e-06
-7.62067e-06
-7.55123e-06
-7.46675e-06
-7.36321e-06
-7.23805e-06
-7.08782e-06
-6.91022e-06
-6.70225e-06
-6.46121e-06
-6.18486e-06
-5.8717e-06
-5.52125e-06
-5.13428e-06
-4.71302e-06
-4.2613e-06
-3.78476e-06
-3.29059e-06
-2.78732e-06
-2.28484e-06
-1.79337e-06
-1.32322e-06
-8.83523e-07
-4.82269e-07
-1.26362e-07
1.7957e-07
4.3301e-07
6.33638e-07
7.83147e-07
8.84976e-07
9.43893e-07
9.65597e-07
9.5628e-07
9.22247e-07
8.69749e-07
8.04587e-07
7.32065e-07
6.5671e-07
5.82158e-07
5.11034e-07
4.45042e-07
3.85048e-07
3.31342e-07
2.83768e-07
2.4201e-07
2.05503e-07
1.73832e-07
1.46255e-07
1.22549e-07
1.01832e-07
8.42644e-08
6.86675e-08
5.58048e-08
4.38308e-08
3.45426e-08
2.47815e-08
1.88084e-08
8.70115e-09
9.67116e-09
-7.77739e-06
-7.69966e-06
-7.65188e-06
-7.58349e-06
-7.50071e-06
-7.39898e-06
-7.27582e-06
-7.12785e-06
-6.9525e-06
-6.74677e-06
-6.50791e-06
-6.23359e-06
-5.92225e-06
-5.57329e-06
-5.18743e-06
-4.76681e-06
-4.31516e-06
-3.83813e-06
-3.34294e-06
-2.83813e-06
-2.33362e-06
-1.83969e-06
-1.36674e-06
-9.23963e-07
-5.19458e-07
-1.60203e-07
1.49114e-07
4.05906e-07
6.09789e-07
7.6241e-07
8.67181e-07
9.28842e-07
9.5307e-07
9.46044e-07
9.14046e-07
8.63313e-07
7.99639e-07
7.28336e-07
6.53947e-07
5.80139e-07
5.09574e-07
4.43994e-07
3.84295e-07
3.30799e-07
2.83372e-07
2.41717e-07
2.05281e-07
1.7366e-07
1.46119e-07
1.22439e-07
1.01743e-07
8.41906e-08
6.86075e-08
5.57543e-08
4.37919e-08
3.45099e-08
2.47609e-08
1.87842e-08
8.70019e-09
9.64143e-09
-7.81733e-06
-7.72917e-06
-7.68526e-06
-7.61808e-06
-7.53728e-06
-7.43764e-06
-7.31681e-06
-7.17145e-06
-6.99876e-06
-6.7957e-06
-6.55942e-06
-6.28755e-06
-5.97842e-06
-5.63131e-06
-5.24686e-06
-4.82716e-06
-4.3757e-06
-3.89837e-06
-3.40216e-06
-2.89575e-06
-2.38905e-06
-1.89245e-06
-1.41639e-06
-9.70184e-07
-5.62031e-07
-1.98993e-07
1.14166e-07
3.74773e-07
5.82373e-07
7.38556e-07
8.46695e-07
9.11504e-07
9.38628e-07
9.34231e-07
9.04571e-07
8.5587e-07
7.93911e-07
7.24014e-07
6.50742e-07
5.77795e-07
5.07878e-07
4.42775e-07
3.8342e-07
3.30168e-07
2.82912e-07
2.41376e-07
2.05023e-07
1.73459e-07
1.45961e-07
1.22311e-07
1.0164e-07
8.41044e-08
6.85375e-08
5.56954e-08
4.37466e-08
3.44717e-08
2.47368e-08
1.87561e-08
8.69913e-09
9.60683e-09
-7.86046e-06
-7.75828e-06