/*--------------------------------*- C++ -*----------------------------------*\
| =========                 |                                                 |
| \\      /  F ield         | foam-extend: Open Source CFD                    |
|  \\    /   O peration     | Version:     4.0                                |
|   \\  /    A nd           | Web:         http://www.foam-extend.org         |
|    \\/     M anipulation  |                                                 |
\*---------------------------------------------------------------------------*/
FoamFile
{
    version     2.0;
    format      ascii;
    class       surfaceScalarField;
    location    "90";
    object      phi;
}
// * * * * * * * * * * * * * * * * * * * * * * * * * * * * * * * * * * * * * //

dimensions      [0 3 -1 0 0 0 0];

internalField   nonuniform List<scalar> 
71520
(
-1.45133e-10
1.45288e-10
-1.54825e-13
-5.86256e-10
4.41535e-10
-4.13264e-13
-1.34715e-09
7.61514e-10
-6.21852e-13
-2.45209e-09
1.10571e-09
-7.62908e-13
-3.92576e-09
1.47448e-09
-8.16304e-13
-5.7931e-09
1.8681e-09
-7.59347e-13
-8.07926e-09
2.28673e-09
-5.66735e-13
-1.08095e-08
2.73044e-09
-2.10254e-13
-1.40091e-08
3.19924e-09
3.41135e-13
-1.77032e-08
3.69301e-09
1.12127e-12
-2.1917e-08
4.21158e-09
2.16721e-12
-2.66752e-08
4.7547e-09
3.51882e-12
-3.20024e-08
5.32203e-09
5.21883e-12
-3.79229e-08
5.91319e-09
7.31333e-12
-4.44605e-08
6.52772e-09
9.85154e-12
-5.16384e-08
7.16506e-09
1.28855e-11
-5.94795e-08
7.82457e-09
1.64704e-11
-6.80057e-08
8.50551e-09
2.06652e-11
-7.72381e-08
9.20691e-09
2.55321e-11
-8.71968e-08
9.92751e-09
3.11384e-11
-9.78999e-08
1.06656e-08
3.75567e-11
-1.09363e-07
1.14187e-08
4.48664e-11
-1.216e-07
1.21835e-08
5.31532e-11
-1.34618e-07
1.29551e-08
6.25093e-11
-1.48418e-07
1.37268e-08
7.30329e-11
-1.62992e-07
1.44893e-08
8.48275e-11
-1.7832e-07
1.52304e-08
9.79985e-11
-1.94365e-07
1.59327e-08
1.12648e-10
-2.11063e-07
1.6569e-08
1.28863e-10
1.70958e-08
-2.28306e-07
1.46711e-10
-1.43318e-10
2.88607e-10
-5.78992e-10
8.77209e-10
-1.33057e-09
1.51309e-09
-2.42209e-09
2.19723e-09
-3.87796e-09
2.93035e-09
-5.72282e-09
3.71296e-09
-7.98151e-09
4.54541e-09
-1.06789e-08
5.42784e-09
-1.38399e-08
6.3602e-09
-1.74891e-08
7.34229e-09
-2.16513e-08
8.37369e-09
-2.63504e-08
9.45386e-09
-3.16105e-08
1.05821e-08
-3.74548e-08
1.17575e-08
-4.39061e-08
1.29791e-08
-5.09867e-08
1.42456e-08
-5.87179e-08
1.55557e-08
-6.712e-08
1.69077e-08
-7.62125e-08
1.82994e-08
-8.6013e-08
1.9728e-08
-9.65372e-08
2.11898e-08
-1.07798e-07
2.26797e-08
-1.19805e-07
2.41904e-08
-1.32562e-07
2.57117e-08
-1.46065e-07
2.72297e-08
-1.603e-07
2.87252e-08
-1.75243e-07
3.01728e-08
-1.90848e-07
3.15373e-08
-2.07043e-07
3.27644e-08
3.37664e-08
-2.23714e-07
-1.39737e-10
4.28343e-10
-5.64654e-10
1.30213e-09
-1.29784e-09
2.24628e-09
-2.36283e-09
3.26222e-09
-3.78349e-09
4.35101e-09
-5.58389e-09
5.51337e-09
-7.78822e-09
6.74974e-09
-1.04206e-08
8.06025e-09
-1.35052e-08
9.44474e-09
-1.70656e-08
1.09027e-08
-2.11254e-08
1.24335e-08
-2.57076e-08
1.4036e-08
-3.08345e-08
1.5709e-08
-3.65277e-08
1.74508e-08
-4.28082e-08
1.92596e-08
-4.96957e-08
2.11332e-08
-5.7209e-08
2.3069e-08
-6.53652e-08
2.5064e-08
-7.41801e-08
2.71142e-08
-8.3667e-08
2.92149e-08
-9.38367e-08
3.13595e-08
-1.04696e-07
3.35391e-08
-1.16248e-07
3.57419e-08
-1.28487e-07
3.79513e-08
-1.41402e-07
4.01446e-08
-1.54968e-07
4.22915e-08
-1.69147e-07
4.43518e-08
-1.83881e-07
4.62705e-08
-1.99083e-07
4.79663e-08
4.93053e-08
-2.14621e-07
-1.3448e-10
5.62823e-10
-5.43598e-10
1.71124e-09
-1.24974e-09
2.95242e-09
-2.27572e-09
4.28819e-09
-3.64458e-09
5.71987e-09
-5.37953e-09
7.24833e-09
-7.50379e-09
8.87399e-09
-1.00404e-08
1.05969e-08
-1.30123e-08
1.24166e-08
-1.64417e-08
1.43322e-08
-2.03506e-08
1.63424e-08
-2.476e-08
1.84454e-08
-2.96902e-08
2.06392e-08
-3.51603e-08
2.29209e-08
-4.11883e-08
2.52875e-08
-4.77905e-08
2.77354e-08
-5.49817e-08
3.02602e-08
-6.27746e-08
3.28568e-08
-7.11793e-08
3.55189e-08
-8.02028e-08
3.82385e-08
-8.98486e-08
4.10052e-08
-1.00115e-07
4.38055e-08
-1.10994e-07
4.66212e-08
-1.22471e-07
4.94277e-08
-1.34518e-07
5.21921e-08
-1.47098e-07
5.48709e-08
-1.60152e-07
5.74067e-08
-1.73604e-07
5.9722e-08
-1.87345e-07
6.17074e-08
6.31778e-08
-2.01218e-07
-1.2768e-10
6.90503e-10
-5.16345e-10
2.09991e-09
-1.18746e-09
3.62354e-09
-2.16284e-09
5.26357e-09
-3.46449e-09
7.02152e-09
-5.11445e-09
8.89828e-09
-7.13465e-09
1.08942e-08
-9.54673e-09
1.3009e-08
-1.23719e-08
1.52417e-08
-1.56307e-08
1.7591e-08
-1.93429e-08
2.00546e-08
-2.35271e-08
2.26296e-08
-2.82008e-08
2.53128e-08
-3.33797e-08
2.80998e-08
-3.9078e-08
3.09859e-08
-4.53078e-08
3.39651e-08
-5.20785e-08
3.70309e-08
-5.93968e-08
4.01751e-08
-6.72657e-08
4.33879e-08
-7.56843e-08
4.6657e-08
-8.46462e-08
4.99671e-08
-9.41387e-08
5.3298e-08
-1.04141e-07
5.66236e-08
-1.14623e-07
5.99094e-08
-1.25541e-07
6.311e-08
-1.36836e-07
6.61661e-08
-1.4843e-07
6.90006e-08
-1.60218e-07
7.15106e-08
-1.72065e-07
7.35541e-08
7.48859e-08
-1.83773e-07
-1.19507e-10
8.1001e-10
-4.83554e-10
2.46396e-09
-1.11247e-09
4.25246e-09
-2.02685e-09
6.17795e-09
-3.24737e-09
8.24204e-09
-4.79463e-09
1.04455e-08
-6.68898e-09
1.27885e-08
-8.95029e-09
1.52703e-08
-1.15978e-08
1.78892e-08
-1.46497e-08
2.06429e-08
-1.81231e-08
2.3528e-08
-2.20338e-08
2.65403e-08
-2.63957e-08
2.96747e-08
-3.12206e-08
3.29247e-08
-3.6518e-08
3.62833e-08
-4.22945e-08
3.97417e-08
-4.85534e-08
4.32898e-08
-5.52941e-08
4.69157e-08
-6.25111e-08
5.06049e-08
-7.01935e-08
5.43394e-08
-7.83235e-08
5.80971e-08
-8.6875e-08
6.18496e-08
-9.5812e-08
6.55606e-08
-1.05086e-07
6.91833e-08
-1.14633e-07
7.26572e-08
-1.24371e-07
7.59044e-08
-1.34196e-07
7.88252e-08
-1.43973e-07
8.12878e-08
-1.53538e-07
8.31188e-08
8.39847e-08
-1.62636e-07
-1.10157e-10
9.20167e-10
-4.46003e-10
2.7998e-09
-1.02652e-09
4.83297e-09
-1.87083e-09
7.02227e-09
-2.99807e-09
9.36928e-09
-4.42712e-09
1.18746e-08
-6.17643e-09
1.45378e-08
-8.26376e-09
1.73576e-08
-1.0706e-08
2.03314e-08
-1.35186e-08
2.34555e-08
-1.67157e-08
2.67252e-08
-2.03096e-08
3.01342e-08
-2.431e-08
3.3675e-08
-2.87241e-08
3.73389e-08
-3.35562e-08
4.11153e-08
-3.88064e-08
4.49919e-08
-4.44709e-08
4.89543e-08
-5.05406e-08
5.29854e-08
-5.70002e-08
5.70646e-08
-6.38277e-08
6.11668e-08
-7.09919e-08
6.52613e-08
-7.84516e-08
6.93093e-08
-8.6153e-08
7.3262e-08
-9.40276e-08
7.70578e-08
-1.01988e-07
8.0618e-08
-1.09927e-07
8.38427e-08
-1.17708e-07
8.66061e-08
-1.25164e-07
8.87437e-08
-1.32109e-07
9.00644e-08
9.00858e-08
-1.3821e-07
-9.98501e-11
1.02002e-09
-4.04553e-10
3.1045e-09
-9.31534e-10
5.35995e-09
-1.69826e-09
7.789e-09
-2.72204e-09
1.03931e-08
-4.01979e-09
1.31723e-08
-5.60777e-09
1.61258e-08
-7.50133e-09
1.92512e-08
-9.71459e-09
2.25446e-08
-1.22601e-08
2.6001e-08
-1.51483e-08
2.96134e-08
-1.83875e-08
3.33734e-08
-2.1983e-08
3.72705e-08
-2.59367e-08
4.12926e-08
-3.02466e-08
4.54253e-08
-3.49062e-08
4.96515e-08
-3.99032e-08
5.39514e-08
-4.52194e-08
5.83015e-08
-5.08286e-08
6.26738e-08
-5.66961e-08
6.70343e-08
-6.27764e-08
7.13416e-08
-6.90114e-08
7.55443e-08
-7.53283e-08
7.95789e-08
-8.16362e-08
8.33657e-08
-8.78232e-08
8.6805e-08
-9.37513e-08
8.97708e-08
-9.92537e-08
9.21085e-08
-1.04126e-07
9.36162e-08
-1.0816e-07
9.40976e-08
9.28589e-08
-1.10933e-07
-8.88204e-11
1.10884e-09
-3.60127e-10
3.37581e-09
-8.29601e-10
5.82943e-09
-1.51283e-09
8.47223e-09
-2.42509e-09
1.13053e-08
-3.58105e-09
1.43283e-08
-4.99455e-09
1.75393e-08
-6.67819e-09
2.09348e-08
-8.64305e-09
2.45095e-08
-1.08982e-08
2.82562e-08
-1.34503e-08
3.21655e-08
-1.63032e-08
3.62262e-08
-1.9457e-08
4.04243e-08
-2.2908e-08
4.47436e-08
-2.66475e-08
4.91647e-08
-3.06612e-08
5.36652e-08
-3.49283e-08
5.82185e-08
-3.94201e-08
6.27933e-08
-4.40989e-08
6.73526e-08
-4.89163e-08
7.18517e-08
-5.38113e-08
7.62366e-08
-5.87082e-08
8.04412e-08
-6.35136e-08
8.43843e-08
-6.81133e-08
8.79655e-08
-7.23688e-08
9.10605e-08
-7.61118e-08
9.35138e-08
-7.9141e-08
9.51377e-08
-8.12187e-08
9.5694e-08
-8.21018e-08
9.49806e-08
9.20225e-08
-8.12653e-08
-7.73079e-11
1.18615e-09
-3.13669e-10
3.61217e-09
-7.22843e-10
6.2386e-09
-1.31834e-09
9.06773e-09
-2.11318e-09
1.21002e-08
-3.11958e-09
1.53347e-08
-4.34865e-09
1.87684e-08
-5.81001e-09
2.23962e-08
-7.51136e-09
2.62109e-08
-9.45802e-09
3.02028e-08
-1.16524e-08
3.43599e-08
-1.40934e-08
3.86672e-08
-1.67759e-08
4.31068e-08
-1.96897e-08
4.76574e-08
-2.28191e-08
5.22941e-08
-2.61416e-08
5.69877e-08
-2.96269e-08
6.17038e-08
-3.32356e-08
6.6402e-08
-3.69175e-08
7.10345e-08
-4.06099e-08
7.55442e-08
-4.42358e-08
7.98625e-08
-4.77006e-08
8.3906e-08
-5.08902e-08
8.7574e-08
-5.36665e-08
9.07418e-08
-5.58636e-08
9.32576e-08
-5.72829e-08
9.49331e-08
-5.76851e-08
9.55399e-08
-5.67915e-08
9.48004e-08
-5.43559e-08
9.25451e-08
8.73742e-08
-4.97076e-08
-6.55499e-11
1.2517e-09
-2.66113e-10
3.81274e-09
-6.13365e-10
6.58585e-09
-1.11856e-09
9.57292e-09
-1.79225e-09
1.27738e-08
-2.64399e-09
1.61864e-08
-3.68192e-09
1.98063e-08
-4.91239e-09
2.36266e-08
-6.33947e-09
2.76379e-08
-7.9644e-09
3.18278e-08
-9.78501e-09
3.61805e-08
-1.1795e-08
4.06773e-08
-1.39834e-08
4.52952e-08
-1.63335e-08
5.00075e-08
-1.88219e-08
5.47825e-08
-2.14175e-08
5.95833e-08
-2.40801e-08
6.43664e-08
-2.67589e-08
6.90808e-08
-2.93908e-08
7.36664e-08
-3.18985e-08
7.80519e-08
-3.41883e-08
8.21522e-08
-3.6147e-08
8.58647e-08
-3.7639e-08
8.9066e-08
-3.85025e-08
9.16053e-08
-3.85441e-08
9.32993e-08
-3.75346e-08
9.39236e-08
-3.51992e-08
9.32044e-08
-3.11891e-08
9.07903e-08
-2.52581e-08
8.66141e-08
7.90384e-08
-1.69223e-08
-5.37715e-11
1.30547e-09
-2.18349e-10
3.97732e-09
-5.03176e-10
6.87068e-09
-9.17082e-10
9.98683e-09
-1.46799e-09
1.33248e-08
-2.16254e-09
1.6881e-08
-3.00572e-09
2.06495e-08
-4.00035e-09
2.46213e-08
-5.14661e-09
2.87842e-08
-6.44139e-09
3.31225e-08
-7.87763e-09
3.76168e-08
-9.44362e-09
4.22433e-08
-1.11221e-08
4.69737e-08
-1.28895e-08
5.17749e-08
-1.47145e-08
5.66075e-08
-1.65569e-08
6.14257e-08
-1.83662e-08
6.61757e-08
-2.00799e-08
7.07945e-08
-2.16217e-08
7.52082e-08
-2.28996e-08
7.93297e-08
-2.3803e-08
8.30556e-08
-2.42003e-08
8.6262e-08
-2.3934e-08
8.87998e-08
-2.28179e-08
9.04891e-08
-2.06313e-08
9.11126e-08
-1.71153e-08
9.04075e-08
-1.1973e-08
8.80622e-08
-4.88217e-09
8.36995e-08
5.02543e-09
7.67065e-08
6.70463e-08
1.70175e-08
-4.21767e-11
1.34764e-09
-1.71185e-10
4.10632e-09
-3.94109e-10
7.0936e-09
-7.17207e-10
1.03099e-08
-1.14559e-09
1.37531e-08
-1.68284e-09
1.74182e-08
-2.33054e-09
2.12972e-08
-3.08778e-09
2.53785e-08
-3.95061e-09
2.9647e-08
-4.91132e-09
3.40833e-08
-5.95771e-09
3.86632e-08
-7.07234e-09
4.33579e-08
-8.2316e-09
4.8133e-08
-9.40453e-09
5.29478e-08
-1.05516e-08
5.77545e-08
-1.16231e-08
6.24973e-08
-1.25581e-08
6.71107e-08
-1.32822e-08
7.15186e-08
-1.37059e-08
7.56319e-08
-1.37227e-08
7.93465e-08
-1.32048e-08
8.25378e-08
-1.20013e-08
8.50585e-08
-9.93342e-09
8.67319e-08
-6.79099e-09
8.73467e-08
-2.32683e-09
8.66485e-08
3.74835e-09
8.43324e-08
1.1775e-08
8.00355e-08
2.21595e-08
7.33149e-08
3.53099e-08
6.35561e-08
5.04933e-08
5.1863e-08
-3.09399e-11
1.37858e-09
-1.2532e-10
4.20071e-09
-2.87754e-10
7.25604e-09
-5.21807e-10
1.0544e-08
-8.29642e-10
1.4061e-08
-1.21159e-09
1.78002e-08
-1.66567e-09
2.17513e-08
-2.18703e-09
2.58999e-08
-2.76733e-09
3.02273e-08
-3.39408e-09
3.471e-08
-4.04974e-09
3.93188e-08
-4.71095e-09
4.40191e-08
-5.34741e-09
4.87694e-08
-5.92047e-09
5.35209e-08
-6.38191e-09
5.8216e-08
-6.6726e-09
6.27879e-08
-6.72084e-09
6.71589e-08
-6.44068e-09
7.12384e-08
-5.72959e-09
7.49208e-08
-4.46526e-09
7.80821e-08
-2.50335e-09
8.05759e-08
3.26227e-10
8.22289e-08
4.22303e-09
8.28351e-08
9.42075e-09
8.2149e-08
1.61925e-08
7.98767e-08
2.48573e-08
7.56676e-08
3.57884e-08
6.91044e-08
4.9421e-08
5.96824e-08
6.62002e-08
4.67768e-08
2.98322e-08
8.68614e-08
-2.0202e-11
1.39879e-09
-8.13209e-11
4.26182e-09
-1.8541e-10
7.36013e-09
-3.33233e-10
1.06918e-08
-5.23879e-10
1.42516e-08
-7.54307e-10
1.80306e-08
-1.01881e-09
2.20158e-08
-1.3084e-09
2.61895e-08
-1.61014e-09
3.05291e-08
-1.90648e-09
3.50063e-08
-2.17457e-09
3.95869e-08
-2.38484e-09
4.42294e-08
-2.49964e-09
4.88842e-08
-2.47235e-09
5.34936e-08
-2.24623e-09
5.79899e-08
-1.75277e-09
6.22945e-08
-9.09837e-10
6.6316e-08
3.8061e-10
6.9948e-08
2.23498e-09
7.30665e-08
4.79057e-09
7.55265e-08
8.20853e-09
7.71579e-08
1.26775e-08
7.77599e-08
1.84177e-08
7.70949e-08
2.56858e-08
7.4881e-08
3.478e-08
7.07825e-08
4.60473e-08
6.44003e-08
5.98905e-08
5.52612e-08
7.67749e-08
4.2798e-08
9.72108e-08
2.63409e-08
5.11026e-09
1.21933e-07
-1.00737e-11
1.40886e-09
-3.96378e-11
4.29139e-09
-8.81096e-11
7.4086e-09
-1.53337e-10
1.0757e-08
-2.31216e-10
1.43295e-08
-3.15198e-10
1.81146e-08
-3.95736e-10
2.20963e-08
-4.59644e-10
2.62534e-08
-4.89371e-10
3.05588e-08
-4.62094e-10
3.49791e-08
-3.48776e-10
3.94736e-08
-1.13149e-10
4.39937e-08
2.89329e-10
4.84818e-08
9.12804e-10
5.28701e-08
1.82265e-09
5.708e-08
3.09724e-09
6.10199e-08
4.82984e-09
6.45834e-08
7.13078e-09
6.7647e-08
1.013e-08
7.00673e-08
1.39796e-08
7.16769e-08
1.88576e-08
7.22799e-08
2.4971e-08
7.16465e-08
3.25602e-08
6.95057e-08
4.19039e-08
6.55372e-08
5.33251e-08
5.93613e-08
6.71971e-08
5.05283e-08
8.39516e-08
3.85067e-08
1.04087e-07
2.26629e-08
1.28158e-07
2.26932e-09
-2.36509e-08
1.56919e-07
-6.75151e-13
1.40953e-09
-7.14374e-13
4.29143e-09
3.20286e-12
7.40468e-09
1.62119e-11
1.0744e-08
4.57216e-11
1.43e-08
1.0192e-10
1.80584e-08
1.98366e-10
2.19999e-08
3.52674e-10
2.60991e-08
5.87316e-10
3.03242e-08
9.3051e-10
3.46359e-08
1.41726e-09
3.89869e-08
2.09036e-09
4.33207e-08
3.00159e-09
4.75705e-08
4.21323e-09
5.16585e-08
5.79967e-09
5.54936e-08
7.84928e-09
5.89703e-08
1.04664e-08
6.19663e-08
1.37737e-08
6.43398e-08
1.79146e-08
6.59264e-08
2.30563e-08
6.65351e-08
2.93934e-08
6.59429e-08
3.71509e-08
6.3889e-08
4.65892e-08
6.00674e-08
5.80089e-08
5.41176e-08
7.17561e-08
4.56141e-08
8.82297e-08
3.40546e-08
1.07889e-07
1.88473e-08
1.31264e-07
-7.11911e-10
1.58947e-07
-2.54136e-08
-5.64194e-08
1.91715e-07
7.96538e-12
1.40157e-09
3.53261e-11
4.26407e-09
8.81723e-11
7.35184e-09
1.74736e-10
1.06575e-08
3.05829e-10
1.41689e-08
4.95399e-10
1.78688e-08
7.61159e-10
2.17341e-08
1.12531e-09
2.57349e-08
1.61537e-09
2.98341e-08
2.2651e-09
3.39861e-08
3.11557e-09
3.81364e-08
4.2163e-09
4.22199e-08
5.62657e-09
4.61603e-08
7.41696e-09
4.98681e-08
9.67107e-09
5.32395e-08
1.24875e-08
5.61539e-08
1.59817e-08
5.8472e-08
2.02889e-08
6.00326e-08
2.5566e-08
6.06492e-08
3.19956e-08
6.01055e-08
3.97885e-08
5.815e-08
4.91881e-08
5.44895e-08
6.04741e-08
4.87813e-08
7.39683e-08
4.06233e-08
9.00397e-08
2.95428e-08
1.09111e-07
1.4983e-08
1.31668e-07
-3.70984e-09
1.58267e-07
-2.7311e-08
1.89536e-07
-5.66825e-08
-9.31638e-08
2.26281e-07
1.58645e-11
1.3857e-09
6.85171e-11
4.21142e-09
1.66895e-10
7.25346e-09
3.22372e-10
1.0502e-08
5.4925e-10
1.3942e-08
8.65336e-10
1.75528e-08
1.2926e-09
2.13068e-08
1.85796e-09
2.51696e-08
2.59411e-09
2.90979e-08
3.54052e-09
3.30397e-08
4.74454e-09
3.69324e-08
6.26262e-09
4.07018e-08
8.16172e-09
4.42611e-08
1.05209e-08
4.75089e-08
1.34333e-08
5.03271e-08
1.70078e-08
5.25794e-08
2.13713e-08
5.41085e-08
2.66715e-08
5.47324e-08
3.30795e-08
5.42412e-08
4.07929e-08
5.23921e-08
5.00391e-08
4.89037e-08
6.10795e-08
4.34491e-08
7.42134e-08
3.56475e-08
8.9783e-08
2.50537e-08
1.08179e-07
1.11466e-08
1.29848e-07
-6.68552e-09
1.55296e-07
-2.91581e-08
1.85106e-07
-5.71206e-08
2.19937e-07
-9.15138e-08
-1.33852e-07
2.60625e-07
2.3066e-11
1.36264e-09
9.90294e-11
4.13546e-09
2.3971e-10
7.11278e-09
4.59691e-10
1.0282e-08
7.76839e-10
1.36249e-08
1.21291e-09
1.71167e-08
1.79425e-09
2.07255e-08
2.55259e-09
2.44112e-08
3.52596e-09
2.81246e-08
4.7597e-09
3.1806e-08
6.30764e-09
3.53844e-08
8.23337e-09
3.87761e-08
1.06118e-08
4.18828e-08
1.35307e-08
4.45899e-08
1.70928e-08
4.6765e-08
2.14176e-08
4.82546e-08
2.66438e-08
4.88822e-08
3.2932e-08
4.84442e-08
4.04674e-08
4.67059e-08
4.94629e-08
4.33966e-08
6.01629e-08
3.82038e-08
7.28466e-08
3.07655e-08
8.78325e-08
2.06615e-08
1.05483e-07
7.40304e-09
1.2621e-07
-9.57979e-09
1.50477e-07
-3.09532e-08
1.78815e-07
-5.74956e-08
2.11826e-07
-9.01323e-08
2.50198e-07
-1.29885e-07
-1.78446e-07
2.94792e-07
2.96441e-11
1.333e-09
1.27147e-10
4.03796e-09
3.07253e-10
6.93268e-09
5.87809e-10
1.00015e-08
9.90315e-10
1.32224e-08
1.54057e-09
1.65664e-08
2.26939e-09
1.99967e-08
3.21347e-09
2.34672e-08
4.4163e-09
2.69217e-08
5.92929e-09
3.0293e-08
7.8129e-09
3.35008e-08
1.01381e-08
3.64509e-08
1.2988e-08
3.90329e-08
1.64594e-08
4.11185e-08
2.06648e-08
4.25595e-08
2.57348e-08
4.31847e-08
3.18201e-08
4.2797e-08
3.90944e-08
4.11699e-08
4.77574e-08
3.80429e-08
5.80378e-08
3.31162e-08
7.01968e-08
2.60448e-08
8.45317e-08
1.64305e-08
1.0138e-07
3.81318e-09
1.21123e-07
-1.23397e-08
1.44189e-07
-3.26463e-08
1.71064e-07
-5.78278e-08
2.02294e-07
-8.87254e-08
2.385e-07
-1.26338e-07
2.80386e-07
-1.71772e-07
-2.26893e-07
3.28834e-07
3.57032e-11
1.29729e-09
1.53277e-10
3.92038e-09
3.70428e-10
6.71553e-09
7.08323e-10
9.66356e-09
1.19217e-09
1.27385e-08
1.85188e-09
1.59067e-08
2.72288e-09
1.91257e-08
3.84694e-09
2.23431e-08
5.27317e-09
2.54955e-08
7.0592e-09
2.8507e-08
9.27238e-09
3.12877e-08
1.19913e-08
3.3732e-08
1.53075e-08
3.57167e-08
1.93271e-08
3.7099e-08
2.41728e-08
3.77138e-08
2.99864e-08
3.7371e-08
3.69311e-08
3.58523e-08
4.51942e-08
3.29068e-08
5.49902e-08
2.82469e-08
6.65638e-08
2.15426e-08
8.01933e-08
1.24153e-08
9.61938e-08
4.29959e-10
1.1492e-07
-1.49135e-08
1.36772e-07
-3.41909e-08
1.62194e-07
-5.80689e-08
1.91689e-07
-8.7322e-08
2.25814e-07
-1.22851e-07
2.65203e-07
-1.65727e-07
3.10571e-07
-2.1714e-07
-2.79117e-07
3.62795e-07
4.13728e-11
1.25592e-09
1.77924e-10
3.78383e-09
4.30364e-10
6.46309e-09
8.23234e-10
9.27069e-09
1.38552e-09
1.21762e-08
2.15136e-09
1.51409e-08
3.16086e-09
1.81162e-08
4.46102e-09
2.10429e-08
6.10675e-09
2.38498e-08
8.16206e-09
2.64517e-08
1.07015e-08
2.87483e-08
1.38114e-08
3.0622e-08
1.75922e-08
3.1936e-08
2.21593e-08
3.25318e-08
2.76464e-08
3.22268e-08
3.42066e-08
3.08108e-08
4.20162e-08
2.80428e-08
5.12762e-08
2.36467e-08
6.22165e-08
1.73066e-08
7.50978e-08
8.66124e-09
9.02156e-08
-2.70243e-09
1.07902e-07
-1.72563e-08
1.28528e-07
-3.554e-08
1.5251e-07
-5.81731e-08
1.8031e-07
-8.5868e-08
2.12437e-07
-1.19449e-07
2.49458e-07
-1.59873e-07
2.92006e-07
-2.08276e-07
3.408e-07
-2.65933e-07
-3.35e-07
3.96683e-07
4.68012e-11
1.20912e-09
2.01667e-10
3.62897e-09
4.88356e-10
6.1764e-09
9.34842e-10
8.8242e-09
1.57396e-09
1.15371e-08
2.44418e-09
1.42707e-08
3.59041e-09
1.697e-08
5.06501e-09
1.95683e-08
6.92885e-09
2.19859e-08
9.25256e-09
2.4128e-08
1.2118e-08
2.58828e-08
1.56198e-08
2.71202e-08
1.98672e-08
2.76886e-08
2.49857e-08
2.74133e-08
3.11197e-08
2.60927e-08
3.84347e-08
2.34958e-08
4.71199e-08
1.93576e-08
5.73908e-08
1.33758e-08
6.94926e-08
5.20483e-09
8.37022e-08
-5.54841e-09
1.00331e-07
-1.93315e-08
1.19728e-07
-3.66534e-08
1.42282e-07
-5.80937e-08
1.68422e-07
-8.43126e-08
1.98618e-07
-1.16064e-07
2.33386e-07
-1.54217e-07
2.7329e-07
-1.99777e-07
3.18952e-07
-2.53937e-07
3.71083e-07
-3.18064e-07
-3.94367e-07
4.3045e-07
5.21481e-11
1.15697e-09
2.2513e-10
3.45599e-09
5.45803e-10
5.85573e-09
1.04564e-09
8.32437e-09
1.76141e-09
1.08213e-08
2.73599e-09
1.32961e-08
4.01924e-09
1.56867e-08
5.66901e-09
1.79186e-08
7.7523e-09
1.99026e-08
1.03466e-08
2.15336e-08
1.35414e-08
2.2688e-08
1.74397e-08
2.32219e-08
2.21599e-08
2.29684e-08
2.7838e-08
2.17352e-08
3.46296e-08
1.93012e-08
4.27125e-08
1.54128e-08
5.22895e-08
9.78064e-09
6.35908e-08
2.07448e-09
7.68765e-08
-8.08092e-09
9.24395e-08
-2.11114e-08
1.10608e-07
-3.74996e-08
1.31746e-07
-5.77917e-08
1.56257e-07
-8.26047e-08
1.8458e-07
-1.12636e-07
2.17192e-07
-1.48676e-07
2.546e-07
-1.91626e-07
2.97355e-07
-2.42531e-07
3.46049e-07
-3.02632e-07
4.01381e-07
-3.73396e-07
-4.56948e-07
4.63962e-07
5.75778e-11
1.09939e-09
2.48957e-10
3.26461e-09
6.04149e-10
5.50054e-09
1.15819e-09
7.77033e-09
1.95188e-09
1.00277e-08
3.0326e-09
1.22154e-08
4.45529e-09
1.4264e-08
6.28344e-09
1.60904e-08
8.59038e-09
1.75957e-08
1.14607e-08
1.86633e-08
1.49916e-08
1.91571e-08
1.92948e-08
1.89187e-08
2.44983e-08
1.77649e-08
3.07486e-08
1.54849e-08
3.8213e-08
1.18368e-08
4.70819e-08
6.54385e-09
5.75718e-08
-7.09255e-10
6.99272e-08
-1.02809e-08
8.44232e-08
-2.2577e-08
1.01369e-07
-3.80569e-08
1.21107e-07
-5.72383e-08
1.44019e-07
-8.07029e-08
1.70517e-07
-1.09103e-07
2.01047e-07
-1.43167e-07
2.36083e-07
-1.83712e-07
2.76118e-07
-2.3166e-07
3.21664e-07
-2.88078e-07
3.73264e-07
-3.54231e-07
4.3159e-07
-4.31722e-07
-5.22338e-07
4.9698e-07
6.32519e-11
1.03614e-09
2.73783e-10
3.05408e-09
6.64821e-10
5.1095e-09
1.27504e-09
7.16011e-09
2.14936e-09
9.15335e-09
3.33978e-09
1.10249e-08
4.90641e-09
1.26974e-08
6.91859e-09
1.40783e-08
9.45615e-09
1.50581e-08
1.26109e-08
1.55086e-08
1.64881e-08
1.52799e-08
2.12083e-08
1.41985e-08
2.69094e-08
1.20638e-08
3.37487e-08
8.64562e-09
4.19053e-08
3.6802e-09
5.15824e-08
-3.13322e-09
6.30097e-08
-1.21366e-08
7.6446e-08
-2.37172e-08
9.21819e-08
-3.83129e-08
1.10541e-07
-5.64161e-08
1.31882e-07
-7.85789e-08
1.56595e-07
-1.05417e-07
1.85105e-07
-1.37613e-07
2.1786e-07
-1.75921e-07
2.5532e-07
-2.21172e-07
2.97949e-07
-2.74289e-07
3.46202e-07
-3.36331e-07
4.0052e-07
-4.0855e-07
4.61538e-07
-4.92739e-07
-5.89929e-07
5.29128e-07
6.93237e-11
9.66821e-10
3.0021e-10
2.8232e-09
7.29167e-10
4.68054e-09
1.39859e-09
6.49068e-09
2.3576e-09
8.19434e-09
3.66294e-09
9.71961e-09
5.38002e-09
1.09803e-08
7.58416e-09
1.18741e-08
1.03619e-08
1.22804e-08
1.38123e-08
1.20581e-08
1.8049e-08
1.10432e-08
2.32017e-08
9.04582e-09
2.94181e-08
5.84735e-09
3.68666e-08
1.19711e-09
4.5738e-08
-5.19117e-09
5.6248e-08
-1.36432e-08
6.86397e-08
-2.45283e-08
8.31862e-08
-3.82637e-08
1.00192e-07
-5.53188e-08
1.19995e-07
-7.6219e-08
1.42966e-07
-1.01549e-07
1.69506e-07
-1.31957e-07
2.00044e-07
-1.68151e-07
2.35026e-07
-2.10903e-07
2.74897e-07
-2.61044e-07
3.20078e-07
-3.1947e-07
3.70934e-07
-3.87186e-07
4.27728e-07
-4.65344e-07
4.90969e-07
-5.5598e-07
-6.58825e-07
5.59865e-07
7.59314e-11
8.9089e-10
3.2878e-10
2.57035e-09
7.9841e-10
4.21091e-09
1.53102e-09
5.75807e-09
2.58002e-09
7.14534e-09
4.00699e-09
8.29264e-09
5.88279e-09
9.10451e-09
8.28886e-09
9.46806e-09
1.13185e-08
9.2508e-09
1.50784e-08
8.29824e-09
1.96905e-08
6.43113e-09
2.52936e-08
3.44265e-09
3.20458e-08
-9.04851e-10
4.01261e-08
-6.88317e-09
4.97369e-08
-1.48019e-08
6.11064e-08
-2.50127e-08
7.44908e-08
-3.79127e-08
9.01763e-08
-5.39492e-08
1.08481e-07
-7.36229e-08
1.29753e-07
-9.74913e-08
1.54374e-07
-1.26171e-07
1.82753e-07
-1.60336e-07
2.15321e-07
-2.00719e-07
2.52518e-07
-2.481e-07
2.94773e-07
-3.03299e-07
3.42461e-07
-3.67159e-07
3.95848e-07
-4.40573e-07
4.54915e-07
-5.2441e-07
5.19662e-07
-6.20728e-07
-7.27536e-07
5.88374e-07
8.3195e-11
8.07695e-10
3.59965e-10
2.29358e-09
8.73602e-10
3.69728e-09
1.67419e-09
4.95748e-09
2.81953e-09
6.00001e-09
4.37613e-09
6.73603e-09
6.42044e-09
7.0602e-09
9.04007e-09
6.84843e-09
1.23352e-08
5.95565e-09
1.64203e-08
4.21315e-09
2.14257e-08
1.42578e-09
2.74994e-08
-2.63108e-09
3.48094e-08
-8.21484e-09
4.35454e-08
-1.56192e-08
5.39214e-08
-2.51779e-08
6.61775e-08
-3.72688e-08
8.0582e-08
-5.23172e-08
9.74329e-08
-7.08001e-08
1.17059e-07
-9.32487e-08
1.39818e-07
-1.20251e-07
1.66099e-07
-1.52452e-07
1.96313e-07
-1.9055e-07
2.3089e-07
-2.35296e-07
2.70264e-07
-2.87473e-07
3.1485e-07
-3.47885e-07
3.65008e-07
-4.17316e-07
4.20956e-07
-4.96521e-07
4.82488e-07
-5.85942e-07
5.48518e-07
-6.86759e-07
-7.92327e-07
6.13309e-07
9.12097e-11
7.16486e-10
3.94139e-10
1.99065e-09
9.55591e-10
3.13582e-09
1.82961e-09
4.08346e-09
3.07847e-09
4.75115e-09
4.77372e-09
5.04078e-09
6.99746e-09
4.83646e-09
9.84357e-09
4.00232e-09
1.34192e-08
2.37997e-09
1.78466e-08
-2.14194e-10
2.32643e-08
-3.99196e-09
2.98297e-08
-9.19644e-09
3.77204e-08
-1.61055e-08
4.71367e-08
-2.50355e-08
5.83035e-08
-3.63447e-08
7.14719e-08
-5.04372e-08
8.6921e-08
-6.77663e-08
1.04959e-07
-8.88379e-08
1.25922e-07
-1.14212e-07
1.50176e-07
-1.44504e-07
1.78109e-07
-1.80385e-07
2.10133e-07
-2.22573e-07
2.46667e-07
-2.7183e-07
2.88136e-07
-3.28942e-07
3.34949e-07
-3.94698e-07
3.87486e-07
-4.69854e-07
4.46058e-07
-5.55093e-07
5.10913e-07
-6.50797e-07
5.82151e-07
-7.57997e-07
-8.7479e-07
6.64614e-07
1.00052e-10
6.16435e-10
4.31598e-10
1.6591e-09
1.04502e-09
2.5224e-09
1.99842e-09
3.13007e-09
3.35859e-09
3.39098e-09
5.20223e-09
3.19714e-09
7.61711e-09
2.42158e-09
1.07035e-08
9.15972e-10
1.45754e-08
-1.49202e-09
1.93628e-08
-5.00156e-09
2.52126e-08
-9.84173e-09
3.2291e-08
-1.62748e-08
4.07853e-08
-2.45998e-08
5.09057e-08
-3.51559e-08
6.28871e-08
-4.83261e-08
7.69905e-08
-6.45406e-08
9.3504e-08
-8.42798e-08
1.12743e-07
-1.08077e-07
1.3505e-07
-1.36519e-07
1.6079e-07
-1.70245e-07
1.9035e-07
-2.09945e-07
2.24129e-07
-2.56352e-07
2.6253e-07
-3.10231e-07
3.05949e-07
-3.72361e-07
3.54761e-07
-4.4351e-07
4.09307e-07
-5.244e-07
4.69872e-07
-6.15657e-07
5.36761e-07
-7.17686e-07
6.10126e-07
-8.31362e-07
-9.54448e-07
6.89784e-07
1.09767e-10
5.06668e-10
4.72518e-10
1.29635e-09
1.14229e-09
1.85263e-09
2.18129e-09
2.09107e-09
3.66094e-09
1.91132e-09
5.6631e-09
1.19498e-09
8.28124e-09
-1.96563e-10
1.16219e-08
-2.4247e-09
1.58062e-08
-5.67632e-09
2.09714e-08
-1.01668e-08
2.72728e-08
-1.61431e-08
3.48851e-08
-2.38872e-08
4.40048e-08
-3.37195e-08
5.4851e-08
-4.60022e-08
6.76678e-08
-6.11428e-08
8.27242e-08
-7.9597e-08
1.00315e-07
-1.01871e-07
1.20761e-07
-1.28523e-07
1.44405e-07
-1.60162e-07
1.71609e-07
-1.97449e-07
2.02749e-07
-2.41085e-07
2.38204e-07
-2.91808e-07
2.78347e-07
-3.50374e-07
3.23528e-07
-4.17542e-07
3.74056e-07
-4.94038e-07
4.30171e-07
-5.80515e-07
4.92019e-07
-6.77505e-07
5.59654e-07
-7.85321e-07
6.32722e-07
-9.0443e-07
-1.03187e-06
7.10149e-07
1.20376e-10
3.86292e-10
5.16983e-10
8.99745e-10
1.24758e-09
1.12203e-09
2.37853e-09
9.60123e-10
3.98593e-09
3.03914e-10
6.1568e-09
-9.75878e-10
8.99031e-09
-3.03008e-09
1.25993e-08
-6.03368e-09
1.71117e-08
-1.01887e-08
2.26721e-08
-1.57272e-08
2.94437e-08
-2.29146e-08
3.76094e-08
-3.20529e-08
4.73739e-08
-4.3484e-08
5.89646e-08
-5.7593e-08
7.2633e-08
-7.48113e-08
8.86547e-08
-9.56187e-08
1.07329e-07
-1.20545e-07
1.28977e-07
-1.50171e-07
1.53939e-07
-1.85124e-07
1.82568e-07
-2.26078e-07
2.15221e-07
-2.73738e-07
2.5225e-07
-3.28837e-07
2.93985e-07
-3.92109e-07
3.40715e-07
-4.64272e-07
3.92658e-07
-5.45982e-07
4.49932e-07
-6.37789e-07
5.12526e-07
-7.401e-07
5.80235e-07
-8.5303e-07
6.52408e-07
-9.76603e-07
-1.10738e-06
7.27918e-07
1.31881e-10
2.54411e-10
5.64983e-10
4.66642e-10
1.36083e-09
3.26183e-10
2.59003e-09
-2.69069e-10
4.33332e-09
-1.43938e-09
6.68286e-09
-3.32542e-09
9.74351e-09
-6.09073e-09
1.36343e-08
-9.92442e-09
1.84897e-08
-1.50441e-08
2.44616e-08
-2.16991e-08
3.17203e-08
-3.01734e-08
4.04565e-08
-4.07891e-08
5.08822e-08
-5.39097e-08
6.32318e-08
-6.99426e-08
7.77627e-08
-8.93421e-08
9.47545e-08
-1.12611e-07
1.14508e-07
-1.40299e-07
1.37342e-07
-1.73005e-07
1.63589e-07
-2.11371e-07
1.93586e-07
-2.56075e-07
2.27667e-07
-3.07819e-07
2.66146e-07
-3.67315e-07
3.093e-07
-4.35264e-07
3.57346e-07
-5.12317e-07
4.104e-07
-5.99036e-07
4.68461e-07
-6.9585e-07
5.31367e-07
-8.03006e-07
5.98718e-07
-9.20381e-07
6.69731e-07
-1.04762e-06
-1.18099e-06
7.43338e-07
1.44255e-10
1.10157e-10
6.1642e-10
-5.52318e-12
1.48183e-09
-5.39231e-10
2.81531e-09
-1.60255e-09
4.70228e-09
-3.32634e-09
7.23999e-09
-5.86313e-09
1.05389e-08
-9.38961e-09
1.47239e-08
-1.41095e-08
1.99361e-08
-2.02563e-08
2.63338e-08
-2.80968e-08
3.40944e-08
-3.79339e-08
4.34151e-08
-5.01098e-08
5.45144e-08
-6.50089e-08
6.76321e-08
-8.30603e-08
8.30295e-08
-1.0474e-07
1.00988e-07
-1.30569e-07
1.21807e-07
-1.61118e-07
1.45798e-07
-1.96997e-07
1.73282e-07
-2.38855e-07
2.04574e-07
-2.87367e-07
2.39977e-07
-3.43222e-07
2.7976e-07
-4.07099e-07
3.24142e-07
-4.79646e-07
3.73252e-07
-5.61427e-07
4.27111e-07
-6.52895e-07
4.85606e-07
-7.54344e-07
5.48429e-07
-8.65829e-07
6.15047e-07
-9.86998e-07
6.84616e-07
-1.11719e-06
-1.25253e-06
7.56153e-07
1.57462e-10
-4.73055e-11
6.71111e-10
-5.19173e-10
1.61015e-09
-1.47827e-09
3.0536e-09
-3.046e-09
5.0915e-09
-5.36424e-09
7.82613e-09
-8.59777e-09
1.13733e-08
-1.29368e-08
1.58639e-08
-1.86e-08
2.14447e-08
-2.58371e-08
2.82805e-08
-3.49326e-08
3.65546e-08
-4.6208e-08
4.64701e-08
-6.00253e-08
5.82505e-08
-7.67893e-08
7.21395e-08
-9.69494e-08
8.84002e-08
-1.21e-07
1.07313e-07
-1.49482e-07
1.29172e-07
-1.82976e-07
1.54278e-07
-2.22103e-07
1.82935e-07
-2.67511e-07
2.15431e-07
-3.19863e-07
2.52031e-07
-3.79822e-07
2.92956e-07
-4.48024e-07
3.38349e-07
-5.25039e-07
3.88258e-07
-6.11336e-07
4.42612e-07
-7.07248e-07
5.01181e-07
-8.12914e-07
5.63538e-07
-9.28186e-07
6.29059e-07
-1.05252e-06
6.96867e-07
-1.18499e-06
-1.32172e-06
7.6606e-07
1.71439e-10
-2.18744e-10
7.28839e-10
-1.07657e-09
1.74523e-09
-2.49466e-09
3.30383e-09
-4.6046e-09
5.49922e-09
-7.55963e-09
8.43858e-09
-1.15371e-08
1.22429e-08
-1.67412e-08
1.70485e-08
-2.34055e-08
2.30077e-08
-3.17964e-08
3.0291e-08
-4.22158e-08
3.90868e-08
-5.50038e-08
4.9603e-08
-7.05416e-08
6.20667e-08
-8.92531e-08
7.67236e-08
-1.11606e-07
9.38361e-08
-1.38113e-07
1.13681e-07
-1.69326e-07
1.36542e-07
-2.05838e-07
1.62709e-07
-2.4827e-07
1.92459e-07
-2.97261e-07
2.26051e-07
-3.53455e-07
2.63706e-07
-4.17478e-07
3.05585e-07
-4.89902e-07
3.51756e-07
-5.71211e-07
4.02189e-07
-6.61769e-07
4.56718e-07
-7.61777e-07
5.15001e-07
-8.71197e-07
5.7652e-07
-9.89704e-07
6.40583e-07
-1.11658e-06
7.06296e-07
-1.25071e-06
-1.38826e-06
7.72834e-07
1.86122e-10
-4.04866e-10
7.89304e-10
-1.67976e-09
1.88639e-09
-3.59174e-09
3.56472e-09
-6.28293e-09
5.9233e-09
-9.91822e-09
9.07402e-09
-1.46878e-08
1.31428e-08
-2.081e-08
1.82709e-08
-2.85336e-08
2.46159e-08
-3.81415e-08
3.23529e-08
-4.99527e-08
4.16747e-08
-6.43257e-08
5.27927e-08
-8.16596e-08
6.5936e-08
-1.02396e-07
8.13499e-08
-1.2702e-07
9.92941e-08
-1.56057e-07
1.20038e-07
-1.9007e-07
1.43854e-07
-2.29654e-07
1.71011e-07
-2.75426e-07
2.0176e-07
-3.2801e-07
2.36323e-07
-3.88019e-07
2.74872e-07
-4.56026e-07
3.17499e-07
-5.32529e-07
3.64206e-07
-6.17918e-07
4.14879e-07
-7.12442e-07
4.69253e-07
-8.16151e-07
5.26894e-07
-9.28838e-07
5.87212e-07
-1.05002e-06
6.49466e-07
-1.17884e-06
7.12761e-07
-1.314e-06
-1.45184e-06
7.76341e-07
2.01429e-10
-6.06296e-10
8.52174e-10
-2.3305e-09
2.03283e-09
-4.7724e-09
3.83478e-09
-8.08487e-09
6.36127e-09
-1.24447e-08
9.72866e-09
-1.80552e-08