/*--------------------------------*- C++ -*----------------------------------*\
| =========                 |                                                 |
| \\      /  F ield         | foam-extend: Open Source CFD                    |
|  \\    /   O peration     | Version:     4.0                                |
|   \\  /    A nd           | Web:         http://www.foam-extend.org         |
|    \\/     M anipulation  |                                                 |
\*---------------------------------------------------------------------------*/
FoamFile
{
    version     2.0;
    format      ascii;
    class       volVectorField;
    location    "90";
    object      U;
}
// * * * * * * * * * * * * * * * * * * * * * * * * * * * * * * * * * * * * * //

dimensions      [0 1 -1 0 0 0 0];

internalField   nonuniform List<vector> 
36000
(
(-2.30719e-07 1.09258e-06 -2.49655e-25)
(-2.32055e-06 3.11909e-06 2.57768e-25)
(-6.69274e-06 5.05032e-06 0)
(-1.34051e-05 6.88087e-06 0)
(-2.24757e-05 8.60606e-06 -2.22844e-25)
(-3.39366e-05 1.02213e-05 -2.11168e-25)
(-4.78203e-05 1.17225e-05 0)
(-6.41441e-05 1.31062e-05 0)
(-8.29064e-05 1.43697e-05 0)
(-0.000104088 1.55111e-05 0)
(-0.00012765 1.65293e-05 0)
(-0.000153539 1.74239e-05 -2.94144e-25)
(-0.000181679 1.81954e-05 -3.99401e-28)
(-0.000211979 1.88449e-05 -2.57045e-25)
(-0.000244331 1.93744e-05 2.39929e-25)
(-0.000278609 1.97863e-05 -2.23189e-25)
(-0.000314672 2.00837e-05 4.15794e-25)
(-0.000352364 2.027e-05 -1.9321e-25)
(-0.000391515 2.0349e-05 1.79091e-25)
(-0.000431942 2.03241e-05 4.98373e-25)
(-0.000473448 2.01988e-05 1.04312e-28)
(-0.000515823 1.99756e-05 5.68615e-25)
(-0.000558843 1.96563e-05 -1.31162e-25)
(-0.000602267 1.9241e-05 -2.41904e-25)
(-0.000645833 1.87281e-05 -2.22906e-25)
(-0.000689256 1.81141e-05 0)
(-0.00073222 1.73931e-05 0)
(-0.000774376 1.65551e-05 0)
(-0.000815308 1.55801e-05 1.57702e-25)
(-0.000854468 1.44326e-05 -2.88684e-25)
(-3.41783e-07 3.25723e-06 0)
(-2.61827e-06 9.30129e-06 0)
(-7.14112e-06 1.50641e-05 0)
(-1.39673e-05 2.05295e-05 9.40828e-25)
(-2.31144e-05 2.56836e-05 -2.2093e-25)
(-3.46137e-05 3.05127e-05 2.11155e-25)
(-4.84971e-05 3.50046e-05 0)
(-6.47808e-05 3.91487e-05 0)
(-8.34625e-05 4.29372e-05 -7.1153e-25)
(-0.000104522 4.63642e-05 6.67375e-25)
(-0.00012792 4.94262e-05 -6.28108e-25)
(-0.000153601 5.2122e-05 5.87388e-25)
(-0.000181489 5.44528e-05 2.75063e-25)
(-0.000211491 5.64221e-05 2.56949e-25)
(-0.000243497 5.80353e-05 4.79343e-25)
(-0.00027738 5.92996e-05 0)
(-0.000312995 6.0224e-05 -1.24802e-24)
(-0.000350184 6.08185e-05 -9.08395e-28)
(-0.000388773 6.1094e-05 1.43422e-24)
(-0.000428576 6.1061e-05 -9.96504e-25)
(-0.000469391 6.0729e-05 -6.15541e-25)
(-0.000511002 6.01061e-05 5.69297e-25)
(-0.000553178 5.91971e-05 -5.24923e-25)
(-0.00059567 5.80021e-05 9.68836e-25)
(-0.000638209 5.65164e-05 -2.7452e-29)
(-0.000680497 5.47292e-05 8.199e-25)
(-0.00072221 5.26228e-05 -1.13026e-24)
(-0.00076299 5.01672e-05 0)
(-0.000802413 4.73037e-05 0)
(-0.000839717 4.39337e-05 0)
(-5.60941e-07 5.37482e-06 1.00216e-24)
(-3.20591e-06 1.5352e-05 4.17755e-27)
(-8.02625e-06 2.48691e-05 -1.48212e-24)
(-1.50772e-05 3.38993e-05 1.88542e-24)
(-2.43754e-05 4.2419e-05 -2.23005e-24)
(-3.59507e-05 5.04054e-05 -1.6958e-24)
(-4.98334e-05 5.78375e-05 3.20183e-24)
(-6.60377e-05 6.46978e-05 -1.50873e-24)
(-8.45598e-05 7.09727e-05 0)
(-0.000105377 7.66518e-05 0)
(-0.00012845 8.1729e-05 0)
(-0.000153719 8.62019e-05 0)
(-0.000181107 9.00719e-05 1.10314e-24)
(-0.000210518 9.33441e-05 -2.57396e-24)
(-0.000241837 9.60271e-05 1.92166e-24)
(-0.000274934 9.81324e-05 0)
(-0.00030966 9.96744e-05 8.33267e-25)
(-0.000345851 0.00010067 -7.73267e-25)
(-0.000383326 0.000101135 0)
(-0.000421889 0.000101088 0)
(-0.000461331 0.000100544 3.08041e-24)
(-0.000501424 9.95162e-05 -1.70726e-24)
(-0.000541924 9.80118e-05 0)
(-0.000582567 9.60312e-05 5.33003e-28)
(-0.000623066 9.35662e-05 -8.92771e-25)
(-0.000663104 9.0599e-05 -8.22934e-25)
(-0.000702336 8.70999e-05 7.52601e-25)
(-0.00074039 8.30189e-05 6.92393e-25)
(-0.000776824 7.82644e-05 0)
(-0.00081045 7.26987e-05 1.73565e-24)
(-8.82471e-07 7.41546e-06 0)
(-4.06838e-06 2.11875e-05 0)
(-9.32572e-06 3.43324e-05 4.95263e-25)
(-1.6707e-05 4.68121e-05 -1.89104e-24)
(-2.62274e-05 5.85934e-05 3.58409e-24)
(-3.79146e-05 6.96435e-05 -2.54551e-24)
(-5.17958e-05 7.99328e-05 0)
(-6.78829e-05 8.94361e-05 0)
(-8.61691e-05 9.81331e-05 -2.14329e-24)
(-0.00010663 0.000106009 2.68323e-24)
(-0.000129221 0.000113054 -1.25797e-24)
(-0.000153881 0.000119263 -1.18204e-24)
(-0.000180528 0.000124638 2.21077e-24)
(-0.000209063 0.000129185 -2.06178e-24)
(-0.000239365 0.000132914 -9.61649e-25)
(-0.000271298 0.000135841 0)
(-0.000304706 0.000137985 -3.34027e-24)
(-0.000339416 0.000139367 -2.84929e-27)
(-0.000375238 0.000140012 2.8794e-24)
(-0.000411965 0.000139941 2.19987e-27)
(-0.000449371 0.000139176 1.46258e-27)
(-0.000487213 0.000137734 5.44897e-28)
(-0.000525229 0.000135625 -1.0529e-24)
(-0.000563132 0.000132848 1.94446e-24)
(-0.00060061 0.000129394 0)
(-0.000637317 0.000125236 -8.61128e-28)
(-0.000672879 0.000120333 3.02155e-24)
(-0.000706904 0.000114615 -1.38674e-24)
(-0.000738938 0.000107963 -3.81157e-24)
(-0.000767135 0.000100235 -3.47862e-24)
(-1.29808e-06 9.35137e-06 1.51475e-24)
(-5.18377e-06 2.67299e-05 -3.13184e-24)
(-1.10069e-05 4.33296e-05 1.98871e-24)
(-1.88162e-05 5.91013e-05 1.89843e-24)
(-2.86247e-05 7.40012e-05 -1.79602e-24)
(-4.04567e-05 8.79867e-05 8.50451e-25)
(-5.43357e-05 0.000101019 -2.41885e-24)
(-7.02695e-05 0.000113063 6.07912e-24)
(-8.82478e-05 0.000124093 -7.10285e-25)
(-0.000108242 0.000134089 1.34839e-24)
(-0.000130204 0.000143034 -1.26548e-24)
(-0.000154067 0.000150923 1.18195e-24)
(-0.000179745 0.000157755 0)
(-0.000207132 0.000163536 0)
(-0.000236102 0.000168277 3.86477e-24)
(-0.000266509 0.000171998 -1.79674e-24)
(-0.000298188 0.000174721 1.67058e-24)
(-0.000330955 0.000176471 1.5521e-24)
(-0.000364608 0.000177278 -2.88415e-24)
(-0.000398923 0.000177169 -4.00938e-24)
(-0.000433657 0.00017617 1.23625e-24)
(-0.000468547 0.0001743 4.57655e-24)
(-0.000503304 0.000171573 -2.11064e-24)
(-0.000537614 0.000167988 5.00768e-27)
(-0.000571134 0.00016353 1.79537e-24)
(-0.000603482 0.000158168 -1.65138e-24)
(-0.000634245 0.000151848 -1.51378e-24)
(-0.000663006 0.000144481 2.22625e-27)
(-0.000689325 0.000135912 1.26612e-24)
(-0.00071042 0.000126061 2.32069e-24)
(-1.79724e-06 1.11576e-05 4.56217e-24)
(-6.52418e-06 3.1909e-05 -1.04769e-24)
(-1.30282e-05 5.17485e-05 0)
(-2.1353e-05 7.06154e-05 -9.55049e-25)
(-3.15086e-05 8.84552e-05 -4.52605e-24)
(-4.3515e-05 0.000105215 5.1342e-24)
(-5.73902e-05 0.000120845 2.43234e-24)
(-7.3137e-05 0.000135302 -1.51839e-24)
(-9.07402e-05 0.000148552 1.44301e-24)
(-0.000110166 0.000160568 -6.75138e-24)
(-0.00013136 0.000171328 3.79816e-24)
(-0.000154251 0.000180823 -1.18734e-24)
(-0.000178746 0.000189049 4.44434e-24)
(-0.00020473 0.00019601 -2.07415e-24)
(-0.000232069 0.00020172 -5.8105e-24)
(-0.000260609 0.000206197 3.60689e-24)
(-0.000290171 0.000209467 -3.35515e-24)
(-0.00032056 0.00021156 -3.51492e-27)
(-0.000351555 0.000212507 -1.45293e-24)
(-0.000382915 0.00021234 -1.34275e-24)
(-0.000414377 0.000211089 4.96041e-24)
(-0.00044565 0.000208775 -4.58177e-24)
(-0.000476417 0.000205413 0)
(-0.000506331 0.000201001 -1.95254e-24)
(-0.000535011 0.000195523 -1.79577e-24)
(-0.000562033 0.00018894 -3.31554e-24)
(-0.00058694 0.00018119 3.04339e-24)
(-0.00060928 0.000172161 0)
(-0.000628668 0.00016166 6.38021e-24)
(-0.000641132 0.00014972 -1.16771e-24)
(-2.36754e-06 1.28128e-05 0)
(-8.05673e-06 3.66638e-05 0)
(-1.53405e-05 5.94909e-05 0)
(-2.42561e-05 8.12216e-05 -5.7885e-27)
(-3.48096e-05 0.00010179 6.36805e-24)
(-4.7015e-05 0.000121132 -5.15227e-24)
(-6.08838e-05 0.000139188 3.25523e-24)
(-7.64124e-05 0.000155904 -6.13019e-24)
(-9.35787e-05 0.000171238 -1.44738e-24)
(-0.000112342 0.000185154 -2.71608e-24)
(-0.000132643 0.000197624 2.54365e-24)
(-0.0001544 0.000208634 1.1969e-24)
(-0.000177513 0.000218176 6.81805e-27)
(-0.000201858 0.000226252 0)
(-0.000227292 0.000232873 -7.64328e-27)
(-0.000253646 0.00023806 1.80822e-24)
(-0.000280731 0.000241838 -1.6783e-24)
(-0.000308334 0.000244239 1.56114e-24)
(-0.000336216 0.000245297 5.80377e-24)
(-0.000364116 0.000245048 -4.03947e-27)
(-0.000391743 0.000243521 -2.49128e-24)
(-0.000418781 0.000240742 -2.29588e-24)
(-0.000444878 0.000236723 -4.05213e-27)
(-0.00046965 0.000231465 -1.96813e-24)
(-0.000492675 0.000224946 -3.61354e-24)
(-0.000513479 0.000217123 4.9784e-24)
(-0.000531558 0.000207925 -1.51875e-24)
(-0.000546412 0.000197223 -2.79497e-24)
(-0.000557776 0.000184796 -5.11608e-24)
(-0.000560223 0.000170786 2.34313e-24)
(-2.9952e-06 1.42993e-05 -4.1129e-24)
(-9.74475e-06 4.09441e-05 0)
(-1.78886e-05 6.64753e-05 -4.06163e-24)
(-2.74565e-05 9.08086e-05 4.81084e-24)
(-3.84489e-05 0.000113866 -5.48365e-24)
(-5.08727e-05 0.000135573 6.92177e-24)
(-6.4731e-05 0.000155857 -6.53904e-24)
(-8.0012e-05 0.000174655 1.53108e-24)
(-9.66854e-05 0.000191913 2.89127e-24)
(-0.000114702 0.000207588 -5.24085e-27)
(-0.000133994 0.000221646 -5.12108e-24)
(-0.000154471 0.000234063 4.79566e-24)
(-0.000176023 0.000244828 -4.47617e-24)
(-0.000198515 0.000253938 -8.3701e-24)
(-0.000221791 0.000261402 5.84776e-24)
(-0.00024567 0.000267239 1.81357e-24)
(-0.000269946 0.000271476 -5.07397e-24)
(-0.000294388 0.000274143 -3.14592e-24)
(-0.000318739 0.000275277 -2.90697e-24)
(-0.000342711 0.000274913 8.09627e-24)
(-0.000365989 0.000273083 -2.50558e-24)
(-0.000388222 0.000269812 4.36586e-27)
(-0.000409025 0.000265114 -4.27317e-24)
(-0.000427974 0.000258985 7.86088e-24)
(-0.000444601 0.000251402 3.61373e-24)
(-0.00045838 0.000242317 -3.32427e-24)
(-0.000468756 0.000231651 6.86557e-27)
(-0.000475166 0.000219257 2.80893e-24)
(-0.000477586 0.000204954 5.13207e-24)
(-0.000468681 0.000188853 -7.04372e-24)
(-3.66555e-06 1.56038e-05 4.1507e-24)
(-1.1549e-05 4.4711e-05 -5.36228e-24)
(-2.06138e-05 7.26378e-05 -4.0908e-24)
(-3.08802e-05 9.9288e-05 3.87768e-24)
(-4.23419e-05 0.000124572 3.68503e-24)
(-5.49967e-05 0.000148401 -1.73181e-24)
(-6.88378e-05 0.000170693 0)
(-8.38433e-05 0.000191374 0)
(-9.9973e-05 0.000210379 1.45518e-24)
(-0.000117168 0.000227654 2.73446e-24)
(-0.000135349 0.000243157 7.71184e-24)
(-0.000154415 0.000256856 -4.81319e-24)
(-0.000174244 0.000268734 -1.14135e-26)
(-0.00019469 0.000278783 4.207e-24)
(-0.000215581 0.000287009 -1.96123e-24)
(-0.000236722 0.000293428 -3.64865e-24)
(-0.000257889 0.000298062 1.0185e-23)
(-0.000278832 0.000300944 3.14812e-24)
(-0.00029927 0.000302109 7.15977e-27)
(-0.000318891 0.000301592 5.8724e-27)
(-0.00033735 0.000299426 -4.13464e-27)
(-0.000354263 0.000295634 2.31717e-24)
(-0.000369208 0.000290228 6.41741e-24)
(-0.00038172 0.000283203 1.44687e-26)
(-0.000391282 0.000274533 3.63275e-24)
(-0.000397318 0.000264158 -1.00329e-23)
(-0.000399218 0.000252003 -6.14015e-24)
(-0.000396328 0.000237922 2.70646e-27)
(-0.000389097 0.000221725 2.58496e-24)
(-0.000367554 0.000203579 4.69308e-24)
(-4.36353e-06 1.67173e-05 -3.13555e-24)
(-1.34292e-05 4.79377e-05 5.39828e-24)
(-2.34548e-05 7.79333e-05 -2.06769e-24)
(-3.44499e-05 0.000106596 5.8792e-24)
(-4.63994e-05 0.000133823 -3.70416e-24)
(-5.92906e-05 0.000159515 -1.74774e-24)
(-7.31045e-05 0.000183577 -6.62896e-24)
(-8.78073e-05 0.000205922 6.23746e-24)
(-0.000103347 0.000226475 -2.94623e-24)
(-0.000119652 0.000245173 0)
(-0.000136631 0.000261962 -5.17554e-24)
(-0.000154171 0.000276802 4.84001e-24)
(-0.000172134 0.000289669 -2.27162e-24)
(-0.000190361 0.000300549 4.22418e-24)
(-0.000208666 0.000309441 1.96503e-24)
(-0.000226833 0.000316357 0)
(-0.000244623 0.000321319 1.57756e-26)
(-0.000261762 0.000324355 0)
(-0.000277945 0.000325499 1.26305e-26)
(-0.000292834 0.000324784 5.44657e-24)
(-0.000306052 0.000322241 5.04475e-24)
(-0.000317182 0.000317894 2.32672e-24)
(-0.000325765 0.000311751 -1.2875e-23)
(-0.000331295 0.000303801 7.25953e-27)
(-0.000333207 0.000294019 0)
(-0.000330872 0.000282343 6.70997e-24)
(-0.00032363 0.00026868 -4.55439e-27)
(-0.000310673 0.000252908 8.49931e-24)
(-0.000293248 0.0002348 0)
(-0.00025797 0.000214662 -4.71196e-24)
(-5.07419e-06 1.76352e-05 1.06938e-24)
(-1.53449e-05 5.06094e-05 2.1916e-24)
(-2.63503e-05 8.23351e-05 4.15294e-24)
(-3.80875e-05 0.000112692 -1.18358e-23)
(-5.0531e-05 0.000141567 5.59069e-24)
(-6.36552e-05 0.000168846 -5.29834e-24)
(-7.74274e-05 0.000194422 1.33407e-23)
(-9.17995e-05 0.000218198 -6.28079e-24)
(-0.000106705 0.000240087 5.91213e-24)
(-0.00012206 0.000260012 0)
(-0.000137756 0.000277912 0)
(-0.000153667 0.000293736 7.31573e-24)
(-0.000169639 0.000307452 3.451e-27)
(-0.000185496 0.000319038 -4.2473e-24)
(-0.000201034 0.000328488 9.55464e-27)
(-0.000216021 0.000335807 -1.04613e-26)
(-0.000230193 0.000341014 -6.84485e-24)
(-0.000243257 0.000344132 3.1802e-24)
(-0.00025488 0.000345193 -2.94311e-24)
(-0.000264696 0.000344227 2.73817e-24)
(-0.000272297 0.000341264 -1.00984e-23)
(-0.000277234 0.000336321 -9.35112e-24)
(-0.00027901 0.000329412 4.31962e-24)
(-0.000277079 0.00032052 7.95767e-24)
(-0.000270833 0.000309607 -3.66749e-24)
(-0.000259588 0.000296607 -3.36157e-24)
(-0.000242624 0.000281419 0)
(-0.000218885 0.000263958 -5.66983e-24)
(-0.000190831 0.000243826 0)
(-0.000141178 0.000222202 7.09033e-24)
(-5.78313e-06 1.83572e-05 -2.11943e-24)
(-1.72568e-05 5.27225e-05 6.62077e-24)
(-2.92403e-05 8.58345e-05 -8.35211e-24)
(-4.1716e-05 0.000117562 -1.68252e-26)
(-5.46463e-05 0.000147778 3.76665e-24)
(-6.7991e-05 0.000176358 -8.89905e-24)
(-8.1701e-05 0.000203183 6.71619e-24)
(-9.57123e-05 0.000228143 0)
(-0.000109942 0.000251138 2.9887e-24)
(-0.000124289 0.000272083 -8.38837e-24)
(-0.00013863 0.000290903 0)
(-0.00015282 0.00030754 -9.80278e-24)
(-0.000166689 0.000321949 4.5778e-24)
(-0.000180042 0.000334104 -4.28496e-24)
(-0.000192656 0.000343989 -3.96028e-24)
(-0.000204277 0.000351605 7.39951e-24)
(-0.000214621 0.000356962 0)
(-0.000223366 0.000360081 3.20363e-24)
(-0.000230156 0.000360988 5.92633e-24)
(-0.000234597 0.00035971 -1.09871e-23)
(-0.000236248 0.000356279 5.07595e-24)
(-0.000234632 0.000350708 -4.69904e-24)
(-0.000229213 0.000343 -4.32806e-24)
(-0.000219399 0.000333139 -3.99074e-24)
(-0.000204544 0.00032108 -7.12445e-27)
(-0.000183914 0.000306753 0)
(-0.000156752 0.000290049 -6.22063e-24)
(-0.000121669 0.000270963 0)
(-8.21253e-05 0.000248231 0)
(-1.83898e-05 0.000226326 4.77018e-24)
(-6.47688e-06 1.88865e-05 2.16039e-24)
(-1.91281e-05 5.42843e-05 -2.23251e-24)
(-3.20674e-05 8.844e-05 -1.05603e-23)
(-4.52612e-05 0.000121211 1.00126e-23)
(-5.86576e-05 0.000152459 -9.4897e-24)
(-7.21994e-05 0.000182048 1.07791e-23)
(-8.58196e-05 0.000209846 -6.77447e-24)
(-9.94356e-05 0.000235733 1.27534e-23)
(-0.000112946 0.000259597 -5.99249e-24)
(-0.000126232 0.00028134 2.80333e-24)
(-0.00013915 0.000300878 2.62771e-24)
(-0.000151535 0.000318141 -4.94618e-24)
(-0.000163201 0.000333077 0)
(-0.00017393 0.000345649 4.29751e-24)
(-0.000183478 0.000355834 1.0686e-26)
(-0.000191568 0.000363626 7.45891e-24)
(-0.000197892 0.000369028 -6.93002e-24)
(-0.000202102 0.000372056 3.21887e-24)
(-0.000203814 0.000372731 -5.93991e-24)
(-0.000202611 0.000371083 1.10126e-23)
(-0.000198022 0.000367129 0)
(-0.00018953 0.000360886 0)
(-0.000176563 0.000352351 8.68169e-24)
(-0.000158493 0.000341502 3.99659e-24)
(-0.000134627 0.000328289 -7.37562e-24)
(-0.000104184 0.000312642 -3.40126e-24)
(-6.63715e-05 0.000294441 6.22124e-24)
(-1.98543e-05 0.000273661 5.72621e-24)
(3.24324e-05 0.000248477 5.2563e-24)
(0.000110326 0.000226185 -4.74387e-24)
(-7.14323e-06 1.923e-05 -1.08441e-23)
(-2.09246e-05 5.53116e-05 2.2325e-24)
(-3.47783e-05 9.01747e-05 0)
(-4.86529e-05 0.000123667 0)
(-6.24804e-05 0.000155638 -7.66241e-24)
(-7.61847e-05 0.000185941 3.63121e-24)
(-8.96785e-05 0.000214434 0)
(-0.000102859 0.000240984 0)
(-0.000115603 0.000265469 -3.0088e-24)
(-0.000127771 0.00028778 8.50753e-24)
(-0.0001392 0.000307822 -1.80412e-26)
(-0.000149703 0.000325516 2.49013e-24)
(-0.000159071 0.000340798 -1.46472e-26)
(-0.000167066 0.000353625 -8.633e-24)
(-0.000173417 0.000363963 8.06397e-24)
(-0.000177824 0.0003718 2.01099e-26)
(-0.000179952 0.000377132 3.4697e-24)
(-0.000179428 0.00037997 1.29237e-23)
(-0.000175848 0.000380332 -1.79452e-23)
(-0.000168759 0.00037824 0)
(-0.000157659 0.000373711 0)
(-0.000141999 0.000366754 9.46329e-24)
(-0.00012117 0.000357364 -4.36268e-24)
(-9.45067e-05 0.000345513 4.02589e-24)
(-6.12741e-05 0.000331146 -3.69853e-24)
(-2.06452e-05 0.000314186 2.04113e-23)
(2.82084e-05 0.0002945 -2.85969e-27)
(8.65416e-05 0.000272012 -8.59427e-24)
(0.000151874 0.000244984 1.149e-26)
(0.000244678 0.000221266 9.54177e-24)
(-7.77135e-06 1.93972e-05 -6.56869e-24)
(-2.26157e-05 5.58289e-05 9.05618e-24)
(-3.73241e-05 9.1075e-05 0)
(-5.1826e-05 0.000124973 -8.16581e-24)
(-6.60349e-05 0.000157364 3.84472e-24)
(-7.98542e-05 0.000188089 0)
(-9.31745e-05 0.000216997 3.45462e-24)
(-0.00010587 0.000243943 -3.2507e-24)
(-0.000117795 0.000268798 -3.03064e-24)
(-0.000128786 0.00029144 -2.84298e-24)
(-0.000138656 0.000311764 2.66269e-24)
(-0.000147199 0.000329682 -9.99329e-24)
(-0.000154179 0.000345123 9.33015e-24)
(-0.00015933 0.00035803 4.36245e-24)
(-0.000162356 0.000368366 -8.09891e-24)
(-0.000162933 0.000376107 2.03928e-26)
(-0.000160702 0.000381247 -6.99123e-24)
(-0.000155266 0.00038379 -6.46684e-24)
(-0.000146189 0.000383749 5.99935e-24)
(-0.000132986 0.000381142 5.56226e-24)
(-0.000115127 0.000375981 1.02872e-23)
(-9.20282e-05 0.000368272 -9.48324e-24)
(-6.30476e-05 0.000358004 0)
(-2.74814e-05 0.000345146 -8.05607e-24)
(1.54438e-05 0.000329635 -3.71993e-24)
(6.65978e-05 0.000311387 -3.39109e-24)
(0.000126843 0.000290253 9.39765e-24)
(0.000197412 0.000266131 -5.74423e-24)
(0.00027601 0.000237375 -5.2256e-24)
(0.000384237 0.000212194 4.79724e-24)
(-8.35194e-06 1.93997e-05 -2.20341e-24)
(-2.41745e-05 5.5867e-05 2.29775e-24)
(-3.96613e-05 9.11869e-05 -2.18275e-24)
(-5.47209e-05 0.000125189 -2.0691e-24)
(-6.92468e-05 0.000157704 3.88039e-24)
(-8.31196e-05 0.000188565 1.10567e-23)
(-9.62057e-05 0.000217611 -1.38757e-23)
(-0.000108355 0.000244689 3.25076e-24)
(-0.000119397 0.000269657 -3.05243e-24)
(-0.000129144 0.000292388 1.14964e-23)
(-0.000137386 0.000312769 -1.07627e-23)
(-0.000143882 0.000330704 5.01621e-24)
(-0.000148371 0.000346106 -1.40808e-23)
(-0.000150564 0.000358913 -8.74571e-24)
(-0.000150141 0.000369081 1.62946e-23)
(-0.00014675 0.000376581 3.79285e-24)
(-0.000140005 0.000381401 -1.40792e-23)
(-0.000129479 0.000383539 1.30473e-23)
(-0.000114705 0.000383005 -6.03868e-24)
(-9.517e-05 0.000379809 -5.59496e-24)
(-7.03116e-05 0.000373962 1.99271e-26)
(-3.95136e-05 0.000365465 0)
(-2.10108e-06 0.000354305 4.39794e-24)
(4.26653e-05 0.000340443 0)
(9.55955e-05 0.000323814 7.43197e-24)
(0.000157599 0.000304325 1.72521e-26)
(0.00022957 0.00028181 0)
(0.00031276 0.000256159 1.23798e-26)
(0.000404873 0.000225687 -5.24075e-24)
(0.000528944 0.000199325 4.80392e-24)
(-8.87755e-06 1.9251e-05 0)
(-2.55789e-05 5.54619e-05 -2.29775e-24)
(-4.17533e-05 9.05651e-05 -6.58892e-24)
(-5.72869e-05 0.000124383 1.45601e-23)
(-7.20511e-05 0.00015674 -1.18131e-23)
(-8.59024e-05 0.00018746 -3.69412e-24)
(-9.86812e-05 0.000216375 1.04799e-23)
(-0.000110211 0.000243324 -3.30321e-24)
(-0.000120294 0.000268158 3.09898e-24)
(-0.000128715 0.000290739 -5.79288e-24)
(-0.000135233 0.000310947 5.41752e-24)
(-0.000139584 0.000328675 -5.06645e-24)
(-0.000141479 0.000343836 -3.06333e-26)
(-0.000140599 0.00035636 4.82329e-27)
(-0.000136598 0.000366194 4.11271e-24)
(-0.000129093 0.000373305 0)
(-0.000117669 0.000377675 7.04671e-24)
(-0.000101869 0.000379298 -6.53265e-24)
(-8.11956e-05 0.000378177 0)
(-5.51057e-05 0.000374322 5.59468e-24)
(-2.30052e-05 0.00036774 6.63441e-27)
(1.57541e-05 0.000358429 -4.78178e-24)
(6.18801e-05 0.000346372 -1.3221e-23)
(0.000116146 0.000331528 -8.12339e-24)
(0.000179395 0.000313825 0)
(0.000252574 0.000293165 -6.84868e-24)
(0.000336605 0.000269367 0)
(0.000432781 0.000242313 -5.76753e-24)
(0.000538681 0.000210187 0)
(0.000678998 0.00018298 -9.52658e-24)
(-9.3423e-06 1.89659e-05 0)
(-2.68105e-05 5.46533e-05 0)
(-4.35678e-05 8.92706e-05 0)
(-5.94768e-05 0.000122635 -8.39123e-24)
(-7.43854e-05 0.000154564 1.18825e-23)
(-8.8124e-05 0.000184877 -7.49056e-24)
(-0.000100505 0.000213398 3.54209e-24)
(-0.000111323 0.000239962 6.63329e-24)
(-0.000120354 0.000264412 0)
(-0.00012735 0.000286606 -5.8566e-24)
(-0.000132043 0.000306415 1.09111e-23)
(-0.000134139 0.000323727 -1.21689e-26)
(-0.000133319 0.000338448 -5.84293e-27)
(-0.000129235 0.000350504 -4.41608e-24)
(-0.000121509 0.000359838 4.13234e-24)
(-0.000109728 0.000366412 0)
(-9.34457e-05 0.000370201 -1.42148e-23)
(-7.21749e-05 0.000371198 1.31593e-23)
(-4.53868e-05 0.000369405 -6.09429e-24)
(-1.25063e-05 0.000364826 0)
(2.70922e-05 0.000357468 -5.19386e-24)
(7.40891e-05 0.000347328 4.7988e-24)
(0.000129224 0.000334386 4.40812e-24)
(0.000193302 0.0003186 4.04846e-24)
(0.000267198 0.000299892 0)
(0.000351893 0.000278162 6.87915e-24)
(0.000448333 0.00025321 0)
(0.000557861 0.000224918 0)
(0.000677815 0.000191259 5.35503e-24)
(0.000834815 0.000163575 9.50617e-24)
(-9.74151e-06 1.85594e-05 0)
(-2.78533e-05 5.34818e-05 0)
(-4.5076e-05 8.73671e-05 0)
(-6.12474e-05 0.000120029 8.46909e-24)
(-7.61902e-05 0.000151279 8.00335e-24)
(-8.97074e-05 0.000180932 -1.1351e-23)
(-0.000101583 0.000208811 3.56862e-24)
(-0.00011158 0.000234744 -6.66337e-24)
(-0.000119445 0.000258572 6.2716e-24)
(-0.0001249 0.000280146 -1.17756e-23)
(-0.000127644 0.000299334 1.54976e-26)
(-0.000127354 0.00031602 1.56623e-26)
(-0.000123677 0.000330106 4.81092e-24)
(-0.000116235 0.000341515 0)
(-0.000104615 0.000350185 -1.24137e-23)
(-8.83754e-05 0.000356074 7.704e-24)
(-6.70348e-05 0.000359159 7.11919e-24)
(-4.00747e-05 0.000359428 -6.62696e-24)
(-6.93353e-06 0.000356882 6.12967e-24)
(3.29963e-05 0.000351526 -5.64637e-24)
(8.03726e-05 0.000343365 1.04346e-23)
(0.000135907 0.000332397 -4.81569e-24)
(0.000200371 0.000318602 0)
(0.0002746 0.000301938 1.6294e-23)
(0.000359496 0.000282325 -1.50125e-23)
(0.000456069 0.000259658 6.51075e-28)
(0.00056528 0.000233722 -6.3233e-24)
(0.000688517 0.000204405 -5.7855e-24)
(0.000822826 0.000169386 -5.29251e-24)
(0.000996962 0.000141642 0)
(-1.00716e-05 1.80457e-05 0)
(-2.86944e-05 5.19875e-05 0)
(-4.6253e-05 8.49174e-05 4.48728e-24)
(-6.25594e-05 0.000116647 -8.51164e-24)
(-7.741e-05 0.000146985 -8.07514e-24)
(-9.05791e-05 0.000175745 1.14188e-23)
(-0.00010182 0.000202746 -3.60309e-24)
(-0.000110866 0.000227816 -6.74317e-24)
(-0.00011743 0.000250793 3.17558e-24)
(-0.000121202 0.000271526 0)
(-0.000121849 0.000289881 1.10678e-23)
(-0.000119015 0.00030574 -1.03506e-23)
(-0.000112313 0.000319003 0)
(-0.000101331 0.000329591 0)
(-8.56235e-05 0.000337441 -4.18178e-24)
(-6.47126e-05 0.000342511 -7.7616e-24)
(-3.80846e-05 0.000344776 7.1937e-24)
(-5.18659e-06 0.000344225 6.62696e-24)
(3.45766e-05 0.00034086 -1.22867e-23)
(8.18461e-05 0.000334687 -5.6864e-24)
(0.000137312 0.000325714 5.24604e-24)
(0.000201718 0.00031394 -4.82135e-24)
(0.000275865 0.000299349 4.45e-24)
(0.000360613 0.000281901 0)
(0.000456893 0.000261516 -2.25197e-28)
(0.000565728 0.000238087 2.07013e-23)
(0.000688079 0.000211384 -6.33257e-24)
(0.000825402 0.0001813 0)
(0.000974366 0.000145148 1.06225e-23)
(0.00116608 0.000117825 -9.49709e-24)
(-1.03297e-05 1.74385e-05 0)
(-2.93226e-05 5.02083e-05 -9.59756e-24)
(-4.70762e-05 8.19823e-05 9.07264e-24)
(-6.3376e-05 0.000112571 4.32939e-24)
(-7.7991e-05 0.000141784 -8.15799e-24)
(-9.06658e-05 0.000169433 -3.82198e-24)
(-0.000101122 0.000195339 1.80776e-23)
(-0.000109062 0.000219329 -1.70072e-23)
(-0.000114164 0.000241241 9.58914e-24)
(-0.000116085 0.000260926 5.99378e-24)
(-0.000114459 0.000278248 5.60139e-24)
(-0.000108893 0.000293091 0)
(-9.89664e-05 0.000305355 -9.69308e-24)
(-8.42306e-05 0.000314961 9.04023e-24)
(-6.42055e-05 0.000321848 1.25601e-23)
(-3.83775e-05 0.000325976 -7.83856e-24)
(-6.19704e-06 0.00032732 3.83372e-26)
(3.2924e-05 0.000325873 -6.66655e-24)
(7.96159e-05 0.00032164 6.15189e-24)
(0.000134554 0.000314631 5.68652e-24)
(0.00019846 0.000304858 1.96061e-26)
(0.00027211 0.000292327 0)
(0.000356329 0.000277027 8.92928e-24)
(0.000452004 0.000258922 0)
(0.00056007 0.000237937 7.53861e-24)
(0.000681563 0.000213966 1.33661e-26)
(0.000817445 0.000186759 6.32571e-24)
(0.000969225 0.000156219 -1.16915e-26)
(0.00113313 0.000119216 -2.11814e-23)
(0.00134281 9.28641e-05 1.43002e-23)
(-1.05133e-05 1.67499e-05 0)
(-2.97275e-05 4.81791e-05 -9.69139e-24)
(-4.75238e-05 7.86185e-05 2.2978e-23)
(-6.36607e-05 0.00010788 -4.33965e-24)
(-7.7879e-05 0.000135774 0)
(-8.98928e-05 0.000162115 3.51019e-26)
(-9.9392e-05 0.000186725 1.45891e-23)
(-0.000106045 0.000209436 -1.37277e-23)
(-0.000109496 0.000230086 -6.38915e-24)
(-0.000109368 0.000248531 6.05442e-24)
(-0.000105259 0.000264637 -2.24779e-23)
(-9.67399e-05 0.000278291 2.62462e-23)
(-8.33533e-05 0.000289396 -1.95433e-23)
(-6.46138e-05 0.000297876 4.54194e-24)
(-4.00039e-05 0.000303674 -8.42858e-24)
(-8.97294e-06 0.000306753 7.83011e-24)
(2.90655e-05 0.000307095 7.30269e-24)
(7.47365e-05 0.000304697 -6.69865e-24)
(0.000128706 0.000299569 6.18088e-24)
(0.000191684 0.000291729 -5.7134e-24)
(0.000264424 0.000281198 1.85252e-26)
(0.000347729 0.000267989 0)
(0.000442451 0.0002521 -8.92839e-24)
(0.000549478 0.000233506 2.29798e-26)
(0.000669755 0.000212137 2.01308e-26)
(0.000804321 0.000187889 6.9238e-24)
(0.000954117 0.000160491 -6.35024e-24)
(0.00112069 0.000129859 1.16192e-23)
(0.00129976 9.2338e-05 1.06392e-23)
(0.00152767 6.75759e-05 0)
(-1.062e-05 1.59908e-05 9.49675e-24)
(-2.98985e-05 4.59312e-05 -2.4607e-24)
(-4.75735e-05 7.48773e-05 0)
(-6.3376e-05 0.000102644 -4.3759e-24)
(-7.7018e-05 0.000129045 0)
(-8.81825e-05 0.0001539 -3.89708e-24)
(-9.65267e-05 0.000177035 0)
(-0.000101685 0.000198285 -1.0345e-23)
(-0.000103267 0.000217498 -6.426e-24)
(-0.000100859 0.00023453 1.82387e-23)
(-9.40241e-05 0.000249256 5.6446e-24)
(-8.22935e-05 0.000261568 -1.58184e-23)
(-6.51735e-05 0.000271374 3.00003e-26)
(-4.21397e-05 0.000278604 2.28586e-23)
(-1.26363e-05 0.000283208 -2.82431e-26)
(2.39259e-05 0.000285157 -1.57886e-23)
(6.81718e-05 0.000284438 -7.27208e-24)
(0.000120764 0.000281058 0)
(0.000182405 0.000275036 6.2143e-24)
(0.000253838 0.0002664 5.73714e-24)
(0.000335848 0.000255182 -1.06137e-23)
(0.000429261 0.000241407 0)
(0.000534932 0.000225091 -8.98167e-24)
(0.000653763 0.000206218 -8.22599e-24)
(0.000786693 0.000184727 -7.54752e-24)
(0.000934738 0.000160516 -6.9013e-24)
(0.00109879 0.00013329 6.35936e-24)
(0.00128042 0.00010298 -1.1614e-23)
(0.00147479 6.53232e-05 1.35477e-26)
(0.00172098 4.28251e-05 9.4405e-24)
(-1.0647e-05 1.517e-05 0)
(-2.9824e-05 4.3491e-05 -2.50352e-26)
(-4.72011e-05 7.08036e-05 -1.40898e-23)
(-6.24817e-05 9.6928e-05 4.42497e-24)
(-7.53482e-05 0.000121682 0)
(-8.54525e-05 0.000144891 1.97593e-23)
(-9.24182e-05 0.000166391 -3.34655e-23)
(-9.5845e-05 0.000186022 6.99424e-24)
(-9.5308e-05 0.00020364 -1.30601e-23)
(-9.03572e-05 0.00021911 6.15851e-24)
(-8.05155e-05 0.000232315 0)
(-6.52778e-05 0.000243154 0)
(-4.41108e-05 0.000251544 -4.97458e-24)
(-1.64507e-05 0.000257426 4.62255e-24)
(1.82979e-05 0.000260757 0)
(6.07638e-05 0.000261519 7.89983e-24)
(0.000111611 0.00025971 0)
(0.00017154 0.000255347 1.35648e-23)
(0.00024129 0.000248463 -6.27255e-24)
(0.000321636 0.000239098 0)
(0.000413386 0.000227301 -5.35087e-24)
(0.000517377 0.000213116 0)
(0.000634478 0.000196574 1.79874e-23)
(0.00076558 0.000177675 8.27081e-24)
(0.000911594 0.000156371 7.58596e-24)
(0.00107349 0.000132563 0)
(0.00125208 0.000105924 1.67505e-26)
(0.00144891 7.63955e-05 5.82689e-24)
(0.00165858 3.90272e-05 -1.06425e-23)
(0.00192273 1.94938e-05 -9.43535e-24)
(-1.05905e-05 1.42947e-05 9.69368e-24)
(-2.94901e-05 4.08805e-05 -2.53731e-24)
(-4.63792e-05 6.64355e-05 -4.81104e-26)
(-6.09331e-05 9.07862e-05 1.34206e-23)
(-7.28047e-05 0.000113758 -1.27301e-23)
(-8.1614e-05 0.000135184 -3.97021e-24)
(-8.69514e-05 0.000154908 -3.49954e-26)
(-8.83815e-05 0.000172784 -3.19491e-26)
(-8.54436e-05 0.000188674 0)
(-7.76504e-05 0.000202456 -1.23168e-23)
(-6.44857e-05 0.000214022 1.725e-23)
(-4.54062e-05 0.000223284 -1.07518e-23)
(-1.98384e-05 0.00023017 9.98725e-24)
(1.28217e-05 0.000234632 -4.62282e-24)
(5.32099e-05 0.000236641 0)
(0.000101995 0.000236189 8.00038e-24)
(0.000159881 0.000233292 -3.8206e-26)
(0.000227606 0.000227979 -6.79443e-24)
(0.000305941 0.000220298 6.27802e-24)
(0.000395687 0.000210309 -5.81186e-24)
(0.000497671 0.000198082 2.13551e-23)
(0.000612741 0.000183679 -1.96384e-23)
(0.000741761 0.000167155 9.03865e-24)
(0.000885594 0.000148531 -3.31239e-23)
(0.00104509 0.000127773 -1.51562e-23)
(0.00122114 0.000104789 2.77915e-26)
(0.00141443 7.92059e-05 1.27664e-23)
(0.00162641 5.09545e-05 1.74716e-23)
(0.0018512 1.43366e-05 -5.33497e-24)
(0.00213249 -1.55552e-06 0)
(-1.04461e-05 1.33701e-05 -9.79658e-24)
(-2.88804e-05 3.81169e-05 -5.32777e-26)
(-4.50761e-05 6.18041e-05 4.76304e-24)
(-5.86801e-05 8.42663e-05 4.49628e-24)
(-6.93159e-05 0.000105337 -2.13892e-23)
(-7.65715e-05 0.000124861 3.22223e-23)
(-8.00034e-05 0.000142693 -2.27193e-23)
(-7.91416e-05 0.000158698 3.55315e-23)
(-7.3489e-05 0.000172752 -1.33318e-23)
(-6.25195e-05 0.000184745 -1.86717e-23)
(-4.56795e-05 0.000194584 1.16563e-23)
(-2.23852e-05 0.000202192 4.21798e-26)
(7.97665e-06 0.000207514 5.07187e-24)
(4.60508e-05 0.000210516 0)
(9.25139e-05 0.000211185 8.64884e-24)
(0.000148075 0.00020953 -7.99241e-24)
(0.000213475 0.00020558 1.48488e-23)
(0.000289489 0.000199384 -6.83659e-24)
(0.000376913 0.000191012 -6.30907e-24)
(0.000476572 0.000180545 -5.81312e-24)
(0.000589306 0.000168072 -1.60207e-23)
(0.000715964 0.000153686 1.9716e-23)
(0.000857384 0.000137466 9.03177e-24)
(0.00101438 0.000119462 -6.652e-26)
(0.0011877 9.96615e-05 -2.88506e-26)
(0.0013781 7.79759e-05 0)
(0.00158609 5.39798e-05 2.83138e-26)
(0.00181294 2.75366e-05 -2.3318e-23)
(0.00205246 -7.84345e-06 5.23229e-24)
(0.00234929 -1.95345e-05 -9.61769e-24)
(-1.02075e-05 1.23998e-05 8.01811e-27)
(-2.79748e-05 3.52132e-05 1.52923e-23)
(-4.32548e-05 5.69344e-05 0)
(-5.56663e-05 7.74076e-05 9.15359e-24)