/*--------------------------------*- C++ -*----------------------------------*\
| =========                 |                                                 |
| \\      /  F ield         | foam-extend: Open Source CFD                    |
|  \\    /   O peration     | Version:     4.0                                |
|   \\  /    A nd           | Web:         http://www.foam-extend.org         |
|    \\/     M anipulation  |                                                 |
\*---------------------------------------------------------------------------*/
FoamFile
{
    version     2.0;
    format      ascii;
    class       volScalarField;
    location    "5";
    object      p;
}
// * * * * * * * * * * * * * * * * * * * * * * * * * * * * * * * * * * * * * //

dimensions      [0 2 -2 0 0 0 0];

internalField   nonuniform List<scalar> 
36000
(
-2.22526e-06
-2.19225e-06
-2.1467e-06
-2.08945e-06
-2.01879e-06
-1.93312e-06
-1.8313e-06
-1.7125e-06
-1.57619e-06
-1.42232e-06
-1.25144e-06
-1.06486e-06
-8.6477e-07
-6.54236e-07
-4.37215e-07
-2.18412e-07
-3.05332e-09
2.03497e-07
3.96376e-07
5.71017e-07
7.23433e-07
8.51061e-07
9.52615e-07
1.02802e-06
1.07827e-06
1.10521e-06
1.11119e-06
1.09902e-06
1.071e-06
1.03321e-06
-2.2604e-06
-2.22723e-06
-2.18152e-06
-2.12414e-06
-2.05337e-06
-1.96762e-06
-1.86574e-06
-1.74688e-06
-1.6105e-06
-1.45654e-06
-1.28553e-06
-1.09876e-06
-8.98391e-07
-6.87465e-07
-4.69924e-07
-2.50457e-07
-3.42827e-08
1.73266e-07
3.67267e-07
5.43106e-07
6.96819e-07
8.25815e-07
9.28775e-07
1.0056e-06
1.05726e-06
1.08558e-06
1.0929e-06
1.08202e-06
1.0552e-06
1.01871e-06
-2.33073e-06
-2.29722e-06
-2.25119e-06
-2.19356e-06
-2.12258e-06
-2.03666e-06
-1.93465e-06
-1.81567e-06
-1.67917e-06
-1.52503e-06
-1.35376e-06
-1.1666e-06
-9.65657e-07
-7.5394e-07
-5.35346e-07
-3.14541e-07
-9.67214e-08
1.12831e-07
3.0908e-07
4.87329e-07
6.43646e-07
7.75385e-07
8.81167e-07
9.60836e-07
1.01532e-06
1.0464e-06
1.0564e-06
1.0481e-06
1.02367e-06
9.89763e-07
-2.43602e-06
-2.40202e-06
-2.3555e-06
-2.29748e-06
-2.2262e-06
-2.14004e-06
-2.03783e-06
-1.91867e-06
-1.78196e-06
-1.62756e-06
-1.45589e-06
-1.26814e-06
-1.06633e-06
-8.53421e-07
-6.33241e-07
-4.10418e-07
-1.90111e-07
2.24233e-08
2.22029e-07
4.03897e-07
5.64122e-07
6.99974e-07
8.09979e-07
8.93905e-07
9.52609e-07
9.87822e-07
1.00182e-06
9.97386e-07
9.7653e-07
9.46496e-07
-2.57592e-06
-2.54126e-06
-2.49412e-06
-2.43558e-06
-2.36389e-06
-2.2774e-06
-2.17493e-06
-2.05553e-06
-1.91855e-06
-1.76378e-06
-1.59158e-06
-1.40303e-06
-1.20007e-06
-9.85557e-07
-7.63254e-07
-5.37732e-07
-3.14069e-07
-9.75901e-08
1.0642e-07
2.93128e-07
4.58561e-07
5.99877e-07
7.15492e-07
8.05069e-07
8.69378e-07
9.10079e-07
9.2939e-07
9.30078e-07
9.13971e-07
8.8908e-07
-2.74998e-06
-2.71452e-06
-2.66658e-06
-2.6074e-06
-2.53521e-06
-2.44833e-06
-2.34552e-06
-2.22581e-06
-2.0885e-06
-1.93327e-06
-1.76038e-06
-1.57082e-06
-1.3664e-06
-1.14988e-06
-9.24914e-07
-6.95969e-07
-4.68135e-07
-2.46793e-07
-3.72926e-08
1.55459e-07
3.27379e-07
4.75492e-07
5.98079e-07
6.9468e-07
7.65953e-07
8.13474e-07
8.39384e-07
8.46437e-07
8.36231e-07
8.17751e-07
-2.95764e-06
-2.92122e-06
-2.87235e-06
-2.81242e-06
-2.73963e-06
-2.65226e-06
-2.54905e-06
-2.42898e-06
-2.29124e-06
-2.13545e-06
-1.96173e-06
-1.77094e-06
-1.56477e-06
-1.3458e-06
-1.1176e-06
-8.84569e-07
-6.51762e-07
-4.24609e-07
-2.08537e-07
-8.5626e-09
1.71095e-07
3.27308e-07
4.58203e-07
5.63169e-07
6.42739e-07
6.98384e-07
7.32154e-07
7.4679e-07
7.43608e-07
7.32796e-07
-3.19824e-06
-3.16072e-06
-3.11077e-06
-3.04997e-06
-2.97648e-06
-2.88856e-06
-2.78488e-06
-2.66437e-06
-2.52614e-06
-2.36967e-06
-2.19498e-06
-2.00273e-06
-1.79447e-06
-1.57264e-06
-1.34066e-06
-1.10285e-06
-8.64259e-07
-6.30348e-07
-4.06643e-07
-1.98292e-07
-9.67412e-09
1.5591e-07
2.9641e-07
4.11051e-07
5.00215e-07
5.65254e-07
6.08114e-07
6.31521e-07
6.36459e-07
6.34561e-07
-3.47101e-06
-3.43225e-06
-3.38108e-06
-3.31929e-06
-3.24502e-06
-3.15647e-06
-3.05226e-06
-2.93123e-06
-2.79242e-06
-2.63518e-06
-2.45933e-06
-2.26541e-06
-2.05473e-06
-1.8296e-06
-1.59329e-06
-1.35003e-06
-1.10483e-06
-8.63228e-07
-6.30844e-07
-4.12989e-07
-2.14221e-07
-3.8033e-08
1.13333e-07
2.38915e-07
3.3893e-07
4.14597e-07
4.67741e-07
5.01074e-07
5.15192e-07
5.23441e-07
-3.77508e-06
-3.73493e-06
-3.68243e-06
-3.61954e-06
-3.54441e-06
-3.45514e-06
-3.35033e-06
-3.22872e-06
-3.08924e-06
-2.93109e-06
-2.75392e-06
-2.55807e-06
-2.34466e-06
-2.11579e-06
-1.8746e-06
-1.6252e-06
-1.3726e-06
-1.12237e-06
-8.80282e-07
-6.51822e-07
-4.4175e-07
-2.53766e-07
-9.03212e-08
4.74246e-08
1.59504e-07
2.46988e-07
3.11568e-07
3.55942e-07
3.80264e-07
3.9988e-07
-4.10948e-06
-4.06783e-06
-4.01385e-06
-3.94978e-06
-3.87368e-06
-3.78364e-06
-3.67815e-06
-3.55588e-06
-3.41563e-06
-3.25644e-06
-3.07777e-06
-2.87973e-06
-2.66325e-06
-2.43021e-06
-2.18358e-06
-1.92737e-06
-1.66656e-06
-1.4068e-06
-1.15401e-06
-9.13871e-07
-6.91381e-07
-4.90457e-07
-3.13768e-07
-1.62689e-07
-3.73827e-08
6.30594e-08
1.40182e-07
1.96671e-07
2.3218e-07
2.64362e-07
-4.47315e-06
-4.42987e-06
-4.37431e-06
-4.30895e-06
-4.23182e-06
-4.14092e-06
-4.03468e-06
-3.91168e-06
-3.77056e-06
-3.61018e-06
-3.42981e-06
-3.22933e-06
-3.00942e-06
-2.77176e-06
-2.51913e-06
-2.25544e-06
-1.98564e-06
-1.71545e-06
-1.45098e-06
-1.19813e-06
-9.62153e-07
-7.47195e-07
-5.56155e-07
-3.90629e-07
-2.50989e-07
-1.36505e-07
-4.57842e-08
2.38474e-08
7.14924e-08
1.17404e-07
-4.86494e-06
-4.81993e-06
-4.76268e-06
-4.69593e-06
-4.61769e-06
-4.52587e-06
-4.41881e-06
-4.29498e-06
-4.15287e-06
-3.99116e-06
-3.80889e-06
-3.60568e-06
-3.38199e-06
-3.13926e-06
-2.88007e-06
-2.60823e-06
-2.32866e-06
-2.04718e-06
-1.77007e-06
-1.50352e-06
-1.25303e-06
-1.023e-06
-8.16561e-07
-6.35538e-07
-4.80523e-07
-3.50973e-07
-2.45656e-07
-1.61909e-07
-1.01219e-07
-4.04618e-08
-5.28362e-06
-5.23677e-06
-5.17773e-06
-5.10952e-06
-5.0301e-06
-4.93727e-06
-4.82932e-06
-4.70457e-06
-4.56135e-06
-4.39814e-06
-4.21375e-06
-4.00754e-06
-3.77969e-06
-3.53142e-06
-3.26511e-06
-2.98445e-06
-2.69436e-06
-2.40073e-06
-2.11008e-06
-1.82887e-06
-1.5629e-06
-1.31682e-06
-1.094e-06
-8.96493e-07
-7.25138e-07
-5.79564e-07
-4.58718e-07
-3.59941e-07
-2.85343e-07
-2.08699e-07
-5.72787e-06
-5.6791e-06
-5.61817e-06
-5.54842e-06
-5.46775e-06
-5.37386e-06
-5.26492e-06
-5.13916e-06
-4.99471e-06
-4.82983e-06
-4.64308e-06
-4.43356e-06
-4.20117e-06
-3.94688e-06
-3.67289e-06
-3.38277e-06
-3.0814e-06
-2.77481e-06
-2.46974e-06
-2.17296e-06
-1.89058e-06
-1.62754e-06
-1.38742e-06
-1.17252e-06
-9.83924e-07
-8.21446e-07
-6.84207e-07
-5.69558e-07
-4.80233e-07
-3.86775e-07
-6.19631e-06
-6.14553e-06
-6.08263e-06
-6.01128e-06
-5.92928e-06
-5.83426e-06
-5.72427e-06
-5.59738e-06
-5.45157e-06
-5.28483e-06
-5.09548e-06
-4.88233e-06
-4.64501e-06
-4.38423e-06
-4.10198e-06
-3.80173e-06
-3.48836e-06
-3.16802e-06
-2.84768e-06
-2.53446e-06
-2.23482e-06
-1.95396e-06
-1.69571e-06
-1.46259e-06
-1.25592e-06
-1.07573e-06
-9.21312e-07
-7.90018e-07
-6.85202e-07
-5.74143e-07
-6.68748e-06
-6.63462e-06
-6.56968e-06
-6.49665e-06
-6.41327e-06
-6.31705e-06
-6.20592e-06
-6.0778e-06
-5.93047e-06
-5.7617e-06
-5.56948e-06
-5.35238e-06
-5.10971e-06
-4.84194e-06
-4.55086e-06
-4.23984e-06
-3.91376e-06
-3.57889e-06
-3.24249e-06
-2.91202e-06
-2.59431e-06
-2.29484e-06
-2.01766e-06
-1.76556e-06
-1.54007e-06
-1.34145e-06
-1.16915e-06
-1.02052e-06
-8.9952e-07
-7.7021e-07
-7.19986e-06
-7.14485e-06
-7.07781e-06
-7.00305e-06
-6.91823e-06
-6.82074e-06
-6.70839e-06
-6.57893e-06
-6.42993e-06
-6.25889e-06
-6.06356e-06
-5.84215e-06
-5.59371e-06
-5.31845e-06
-5.01797e-06
-4.69553e-06
-4.35604e-06
-4.00592e-06
-3.65267e-06
-3.30418e-06
-2.96765e-06
-2.64885e-06
-2.35204e-06
-2.08025e-06
-1.83528e-06
-1.61758e-06
-1.42676e-06
-1.26018e-06
-1.12239e-06
-9.74262e-07
-7.73185e-06
-7.67464e-06
-7.60545e-06
-7.52891e-06
-7.44261e-06
-7.34378e-06
-7.23012e-06
-7.0992e-06
-6.94836e-06
-6.77485e-06
-6.5761e-06
-6.35003e-06
-6.0954e-06
-5.81213e-06
-5.50167e-06
-5.16719e-06
-4.8136e-06
-4.4475e-06
-4.0767e-06
-3.70946e-06
-3.35341e-06
-3.0146e-06
-2.69752e-06
-2.4054e-06
-2.14034e-06
-1.90297e-06
-1.69308e-06
-1.50801e-06
-1.35295e-06
-1.18539e-06
-8.28182e-06
-8.22237e-06
-8.15098e-06
-8.07263e-06
-7.98479e-06
-7.88457e-06
-7.76951e-06
-7.637e-06
-7.48415e-06
-7.30793e-06
-7.10547e-06
-6.87437e-06
-6.61309e-06
-6.32131e-06
-6.00029e-06
-5.65312e-06
-5.28479e-06
-4.90203e-06
-4.51297e-06
-4.12631e-06
-3.75009e-06
-3.39066e-06
-3.0527e-06
-2.73969e-06
-2.45398e-06
-2.19643e-06
-1.96697e-06
-1.76294e-06
-1.59024e-06
-1.40243e-06
-8.84808e-06
-8.78636e-06
-8.71275e-06
-8.63254e-06
-8.54312e-06
-8.44145e-06
-8.3249e-06
-8.19067e-06
-8.03562e-06
-7.85645e-06
-7.64997e-06
-7.41345e-06
-7.14507e-06
-6.84425e-06
-6.51209e-06
-6.15163e-06
-5.7679e-06
-5.36783e-06
-4.95987e-06
-4.55315e-06
-4.15617e-06
-3.77555e-06
-3.41616e-06
-3.08172e-06
-2.77487e-06
-2.49667e-06
-2.24721e-06
-2.02378e-06
-1.83321e-06
-1.62396e-06
-9.4289e-06
-9.36489e-06
-9.28902e-06
-9.20694e-06
-9.11591e-06
-9.01272e-06
-8.89459e-06
-8.7585e-06
-8.60107e-06
-8.41869e-06
-8.20786e-06
-7.96554e-06
-7.68959e-06
-7.3792e-06
-7.03533e-06
-6.66096e-06
-6.26121e-06
-5.8432e-06
-5.41573e-06
-4.98837e-06
-4.57008e-06
-4.16776e-06
-3.78644e-06
-3.4301e-06
-3.10166e-06
-2.80239e-06
-2.53253e-06
-2.28934e-06
-2.08066e-06
-1.84852e-06
-1.00225e-05
-9.95619e-06
-9.87806e-06
-9.79408e-06
-9.7014e-06
-9.59664e-06
-9.47684e-06
-9.33876e-06
-9.17874e-06
-8.99289e-06
-8.77737e-06
-8.52884e-06
-8.24485e-06
-7.92437e-06
-7.56821e-06
-7.17934e-06
-6.76296e-06
-6.32643e-06
-5.87887e-06
-5.43035e-06
-4.99026e-06
-4.56579e-06
-4.1621e-06
-3.78344e-06
-3.43302e-06
-3.11231e-06
-2.8217e-06
-2.55841e-06
-2.33145e-06
-2.07498e-06
-1.06271e-05
-1.05585e-05
-1.04781e-05
-1.03922e-05
-1.02978e-05
-1.01915e-05
-1.00699e-05
-9.92965e-06
-9.76684e-06
-9.57725e-06
-9.35671e-06
-9.10154e-06
-8.80903e-06
-8.47793e-06
-8.10893e-06
-7.70497e-06
-7.2714e-06
-6.8158e-06
-6.34764e-06
-5.87748e-06
-5.41517e-06
-4.96815e-06
-4.54172e-06
-4.14036e-06
-3.76764e-06
-3.42518e-06
-3.11354e-06
-2.82991e-06
-2.58451e-06
-2.3025e-06
-1.12408e-05
-1.11699e-05
-1.10873e-05
-1.09995e-05
-1.09034e-05
-1.07953e-05
-1.06719e-05
-1.05294e-05
-1.03636e-05
-1.01699e-05
-9.94403e-06
-9.68182e-06
-9.38031e-06
-9.03806e-06
-8.65566e-06
-8.23607e-06
-7.78477e-06
-7.30959e-06
-6.82037e-06
-6.32815e-06
-5.84327e-06
-5.3734e-06
-4.92391e-06
-4.49955e-06
-4.10429e-06
-3.73984e-06
-3.40692e-06
-3.10271e-06
-2.83865e-06
-2.53038e-06
-1.18618e-05
-1.17886e-05
-1.17038e-05
-1.16141e-05
-1.15163e-05
-1.14065e-05
-1.12811e-05
-1.11361e-05
-1.09671e-05
-1.07691e-05
-1.05375e-05
-1.02678e-05
-9.95683e-06
-9.60292e-06
-9.20659e-06
-8.77084e-06
-8.3013e-06
-7.80608e-06
-7.29539e-06
-6.78078e-06
-6.27308e-06
-5.78011e-06
-5.3073e-06
-4.85972e-06
-4.44177e-06
-4.05517e-06
-3.70076e-06
-3.37588e-06
-3.09289e-06
-2.75842e-06
-1.24881e-05
-1.24128e-05
-1.23257e-05
-1.22341e-05
-1.21346e-05
-1.2023e-05
-1.18956e-05
-1.1748e-05
-1.15755e-05
-1.1373e-05
-1.11352e-05
-1.08577e-05
-1.05367e-05
-1.01707e-05
-9.75988e-06
-9.30747e-06
-8.81924e-06
-8.30358e-06
-7.7711e-06
-7.23384e-06
-6.70312e-06
-6.18692e-06
-5.69057e-06
-5.21966e-06
-4.77901e-06
-4.37014e-06
-3.99409e-06
-3.64869e-06
-3.34622e-06
-2.98668e-06
-1.3118e-05
-1.30405e-05
-1.29512e-05
-1.28578e-05
-1.27566e-05
-1.26431e-05
-1.25135e-05
-1.23632e-05
-1.2187e-05
-1.19796e-05
-1.17354e-05
-1.14495e-05
-1.11182e-05
-1.07394e-05
-1.03137e-05
-9.84419e-06
-9.33686e-06
-8.80042e-06
-8.24588e-06
-7.6858e-06
-7.13199e-06
-6.59245e-06
-6.07242e-06
-5.57826e-06
-5.11493e-06
-4.68375e-06
-4.28589e-06
-3.91971e-06
-3.59405e-06
-3.21069e-06
-1.37495e-05
-1.36698e-05
-1.35785e-05
-1.34832e-05
-1.33802e-05
-1.32649e-05
-1.3133e-05
-1.29797e-05
-1.27997e-05
-1.25871e-05
-1.23361e-05
-1.20414e-05
-1.16992e-05
-1.13074e-05
-1.08663e-05
-1.03792e-05
-9.85244e-06
-9.29494e-06
-8.71815e-06
-8.13517e-06
-7.55828e-06
-6.99532e-06
-6.45166e-06
-5.93451e-06
-5.44858e-06
-4.99516e-06
-4.57516e-06
-4.18661e-06
-3.82703e-06
-3.42222e-06
-1.43806e-05
-1.42989e-05
-1.42055e-05
-1.41084e-05
-1.40037e-05
-1.38864e-05
-1.37522e-05
-1.35958e-05
-1.34117e-05
-1.31936e-05
-1.29354e-05
-1.26316e-05
-1.22781e-05
-1.18727e-05
-1.14158e-05
-1.09108e-05
-1.03643e-05
-9.78551e-06
-9.18635e-06
-8.58046e-06
-7.98058e-06
-7.39428e-06
-6.82722e-06
-6.28741e-06
-5.77929e-06
-5.30422e-06
-4.86248e-06
-4.45133e-06
-4.05174e-06
-3.65626e-06
-1.50095e-05
-1.49257e-05
-1.48303e-05
-1.47315e-05
-1.46251e-05
-1.45059e-05
-1.43691e-05
-1.42096e-05
-1.40211e-05
-1.37972e-05
-1.35314e-05
-1.32181e-05
-1.28529e-05
-1.24335e-05
-1.19604e-05
-1.14372e-05
-1.08707e-05
-1.02705e-05
-9.64893e-06
-9.02021e-06
-8.39748e-06
-7.78805e-06
-7.1979e-06
-6.63585e-06
-6.10623e-06
-5.61074e-06
-5.14967e-06
-4.72318e-06
-4.31325e-06
-4.05049e-06
-1.56341e-05
-1.55485e-05
-1.54512e-05
-1.53506e-05
-1.52425e-05
-1.51213e-05
-1.4982e-05
-1.4819e-05
-1.4626e-05
-1.4396e-05
-1.41224e-05
-1.37992e-05
-1.34218e-05
-1.2988e-05
-1.24984e-05
-1.19567e-05
-1.13699e-05
-1.07483e-05
-1.01044e-05
-9.45294e-06
-8.80757e-06
-8.17528e-06
-7.56239e-06
-6.97852e-06
-6.42784e-06
-5.91226e-06
-5.43231e-06
-4.99011e-06
-4.56888e-06
-4.32072e-06
-1.62526e-05
-1.61652e-05
-1.6066e-05
-1.59638e-05
-1.5854e-05
-1.57308e-05
-1.55889e-05
-1.54223e-05
-1.52245e-05
-1.49881e-05
-1.47063e-05
-1.43728e-05
-1.3983e-05
-1.35345e-05
-1.3028e-05
-1.24675e-05
-1.18605e-05
-1.12173e-05
-1.05511e-05
-9.87724e-06
-9.20948e-06
-8.55461e-06
-7.91941e-06
-7.3141e-06
-6.74268e-06
-6.20715e-06
-5.70809e-06
-5.24812e-06
-4.80816e-06
-4.53724e-06
-1.68631e-05
-1.67739e-05
-1.6673e-05
-1.65693e-05
-1.64577e-05
-1.63325e-05
-1.61878e-05
-1.60176e-05
-1.58147e-05
-1.55718e-05
-1.52814e-05
-1.49373e-05
-1.45346e-05
-1.4071e-05
-1.35474e-05
-1.29681e-05
-1.23407e-05
-1.16761e-05
-1.09878e-05
-1.02917e-05
-9.60184e-06
-8.92473e-06
-8.26769e-06
-7.64135e-06
-7.04952e-06
-6.4942e-06
-5.97592e-06
-5.49713e-06
-5.03741e-06
-4.74272e-06
-1.74636e-05
-1.73728e-05
-1.72703e-05
-1.7165e-05
-1.70518e-05
-1.69245e-05
-1.6777e-05
-1.66029e-05
-1.63948e-05
-1.6145e-05
-1.58458e-05
-1.54907e-05
-1.50749e-05
-1.4596e-05
-1.40551e-05
-1.34567e-05
-1.28089e-05
-1.2123e-05
-1.14128e-05
-1.06949e-05
-9.98326e-06
-9.2843e-06
-8.60605e-06
-7.95913e-06
-7.34727e-06
-6.77243e-06
-6.23507e-06
-5.73728e-06
-5.25841e-06
-4.94115e-06
-1.80522e-05
-1.79599e-05
-1.78559e-05
-1.77491e-05
-1.76343e-05
-1.75049e-05
-1.73546e-05
-1.71765e-05
-1.6963e-05
-1.6706e-05
-1.63977e-05
-1.60313e-05
-1.5602e-05
-1.51076e-05
-1.45492e-05
-1.39317e-05
-1.32636e-05
-1.25565e-05
-1.18248e-05
-1.10856e-05
-1.03525e-05
-9.63216e-06
-8.93331e-06
-8.26634e-06
-7.63492e-06
-7.04101e-06
-6.48494e-06
-5.96849e-06
-5.47132e-06
-5.13231e-06
-1.86271e-05
-1.85334e-05
-1.84279e-05
-1.83198e-05
-1.82035e-05
-1.80719e-05
-1.79186e-05
-1.77364e-05
-1.75173e-05
-1.72529e-05
-1.69352e-05
-1.65573e-05
-1.61144e-05
-1.56042e-05
-1.50282e-05
-1.43916e-05
-1.37034e-05
-1.29754e-05
-1.22225e-05
-1.14623e-05
-1.07083e-05
-9.96716e-06
-9.24836e-06
-8.56194e-06
-7.91155e-06
-7.2991e-06
-6.72488e-06
-6.19038e-06
-5.67589e-06
-5.31598e-06
-1.91863e-05
-1.90913e-05
-1.89846e-05
-1.88752e-05
-1.87573e-05
-1.86237e-05
-1.84674e-05
-1.82809e-05
-1.8056e-05
-1.7784e-05
-1.74567e-05
-1.7067e-05
-1.66101e-05
-1.6084e-05
-1.54904e-05
-1.48348e-05
-1.41266e-05
-1.3378e-05
-1.26043e-05
-1.18238e-05
-1.10495e-05
-1.02882e-05
-9.55013e-06
-8.84494e-06
-8.17625e-06
-7.54594e-06
-6.95425e-06
-6.40244e-06
-5.8716e-06
-5.49173e-06
-1.9728e-05
-1.96319e-05
-1.95241e-05
-1.94135e-05
-1.92941e-05
-1.91583e-05
-1.8999e-05
-1.88081e-05
-1.85773e-05
-1.82975e-05
-1.79603e-05
-1.75586e-05
-1.70877e-05
-1.65456e-05
-1.59344e-05
-1.52599e-05
-1.45319e-05
-1.37631e-05
-1.29692e-05
-1.21689e-05
-1.1375e-05
-1.05942e-05
-9.83759e-06
-9.1144e-06
-8.42815e-06
-7.78072e-06
-7.17233e-06
-6.60403e-06
-6.05781e-06
-5.65891e-06
-2.02504e-05
-2.01534e-05
-2.00445e-05
-1.99329e-05
-1.9812e-05
-1.96741e-05
-1.95116e-05
-1.93164e-05
-1.90794e-05
-1.87916e-05
-1.84443e-05
-1.80305e-05
-1.75454e-05
-1.69873e-05
-1.63585e-05
-1.56653e-05
-1.49178e-05
-1.41293e-05
-1.33158e-05
-1.24965e-05
-1.16836e-05
-1.08841e-05
-1.01098e-05
-9.3694e-06
-8.6664e-06
-8.00267e-06
-7.3784e-06
-6.79448e-06
-6.23381e-06
-5.81676e-06
-2.07517e-05
-2.06538e-05
-2.05441e-05
-2.04315e-05
-2.03093e-05
-2.01693e-05
-2.00036e-05
-1.98038e-05
-1.95606e-05
-1.92646e-05
-1.89072e-05
-1.84811e-05
-1.79817e-05
-1.74075e-05
-1.67613e-05
-1.60496e-05
-1.52832e-05
-1.44755e-05
-1.36429e-05
-1.28053e-05
-1.19743e-05
-1.11569e-05
-1.03658e-05
-9.60905e-06
-8.89018e-06
-8.21101e-06
-7.57173e-06
-6.97307e-06
-6.39888e-06
-5.96454e-06
-2.12301e-05
-2.11316e-05
-2.10211e-05
-2.09077e-05
-2.07842e-05
-2.06421e-05
-2.04732e-05
-2.02688e-05
-2.00192e-05
-1.97149e-05
-1.93472e-05
-1.89087e-05
-1.8395e-05
-1.78049e-05
-1.71414e-05
-1.64117e-05
-1.56267e-05
-1.48004e-05
-1.39495e-05
-1.30943e-05
-1.22461e-05
-1.14117e-05
-1.06046e-05
-9.83253e-06
-9.09869e-06
-8.405e-06
-7.75161e-06
-7.13912e-06
-6.55232e-06
-6.10152e-06
-2.16839e-05
-2.15849e-05
-2.14739e-05
-2.13597e-05
-2.1235e-05
-2.10909e-05
-2.09188e-05
-2.07096e-05
-2.04536e-05
-2.01409e-05
-1.97627e-05
-1.93119e-05
-1.87839e-05
-1.81779e-05
-1.74975e-05
-1.675e-05
-1.5947e-05
-1.51028e-05
-1.42344e-05
-1.33625e-05
-1.24979e-05
-1.16475e-05
-1.08256e-05
-1.0039e-05
-9.29117e-06
-8.58389e-06
-7.91732e-06
-7.29192e-06
-6.69343e-06
-6.227e-06
-2.21114e-05
-2.20121e-05
-2.19008e-05
-2.1786e-05
-2.16601e-05
-2.1514e-05
-2.13386e-05
-2.11247e-05
-2.08622e-05
-2.0541e-05
-2.01524e-05
-1.96891e-05
-1.91469e-05
-1.85253e-05
-1.78282e-05
-1.70635e-05
-1.62431e-05
-1.53817e-05
-1.44968e-05
-1.36089e-05
-1.27288e-05
-1.18637e-05
-1.10278e-05
-1.02277e-05
-9.46688e-06
-8.747e-06
-8.0682e-06
-7.43082e-06
-6.82155e-06
-6.34028e-06
-2.25111e-05
-2.24117e-05
-2.23001e-05
-2.21848e-05
-2.20579e-05
-2.19098e-05
-2.17312e-05
-2.15125e-05
-2.12434e-05
-2.09138e-05
-2.05146e-05
-2.00389e-05
-1.94827e-05
-1.88458e-05
-1.81324e-05
-1.7351e-05
-1.65139e-05
-1.56361e-05
-1.47355e-05
-1.38325e-05
-1.29379e-05
-1.20592e-05
-1.12104e-05
-1.0398e-05
-9.62512e-06
-8.89364e-06
-8.20359e-06
-7.55518e-06
-6.93604e-06
-6.44068e-06
-2.28813e-05
-2.27819e-05
-2.26703e-05
-2.25547e-05
-2.24268e-05
-2.22768e-05
-2.2095e-05
-2.18715e-05
-2.15958e-05
-2.12576e-05
-2.0848e-05
-2.036e-05
-1.97899e-05
-1.9138e-05
-1.84088e-05
-1.76113e-05
-1.67583e-05
-1.5865e-05
-1.49497e-05
-1.40325e-05
-1.31245e-05
-1.22334e-05
-1.13728e-05
-1.0549e-05
-9.76523e-06
-9.02318e-06
-8.32288e-06
-7.66442e-06
-7.03634e-06
-6.52764e-06
-2.32205e-05
-2.31214e-05
-2.30099e-05
-2.28941e-05
-2.27654e-05
-2.26135e-05
-2.24285e-05
-2.22002e-05
-2.19179e-05
-2.15713e-05
-2.11512e-05
-2.06511e-05
-2.00675e-05
-1.94008e-05
-1.86563e-05
-1.78435e-05
-1.69753e-05
-1.60674e-05
-1.51385e-05
-1.42082e-05
-1.32878e-05
-1.23855e-05
-1.15142e-05
-1.06803e-05
-9.8866e-06
-9.13505e-06
-8.42552e-06
-7.75799e-06
-7.12192e-06
-6.60065e-06
-2.35273e-05
-2.34286e-05
-2.33174e-05
-2.32016e-05
-2.30722e-05
-2.29184e-05
-2.27303e-05
-2.24973e-05
-2.22084e-05
-2.18533e-05
-2.14231e-05
-2.0911e-05
-2.03141e-05
-1.96332e-05
-1.8874e-05
-1.80465e-05
-1.7164e-05
-1.62426e-05
-1.53012e-05
-1.4359e-05
-1.34273e-05
-1.25149e-05
-1.16341e-05
-1.07911e-05
-9.98866e-06
-9.2287e-06
-8.51098e-06
-7.8354e-06
-7.19231e-06
-6.65926e-06
-2.38002e-05
-2.37021e-05
-2.35915e-05
-2.34758e-05
-2.33457e-05
-2.31903e-05
-2.29992e-05
-2.27614e-05
-2.2466e-05
-2.21026e-05
-2.16622e-05
-2.11385e-05
-2.05287e-05
-1.98341e-05
-1.90609e-05
-1.82195e-05
-1.73237e-05
-1.63897e-05
-1.5437e-05
-1.4484e-05
-1.35422e-05
-1.26209e-05
-1.17319e-05
-1.08809e-05
-1.00709e-05
-9.30363e-06
-8.5788e-06
-7.8962e-06
-7.24709e-06
-6.7031e-06
-2.4038e-05
-2.39407e-05
-2.38308e-05
-2.37154e-05
-2.35849e-05
-2.34279e-05
-2.32337e-05
-2.29913e-05
-2.26896e-05
-2.23179e-05
-2.18677e-05
-2.13326e-05
-2.07102e-05
-2.00026e-05
-1.92161e-05
-1.83616e-05
-1.74534e-05
-1.65081e-05
-1.55453e-05
-1.45828e-05
-1.3632e-05
-1.27031e-05
-1.18069e-05
-1.09493e-05
-1.01329e-05
-9.35941e-06
-8.62855e-06
-7.94e-06
-7.28588e-06
-6.73179e-06
-2.42395e-05
-2.41432e-05
-2.40342e-05
-2.39193e-05
-2.37883e-05
-2.36298e-05
-2.34327e-05
-2.31858e-05
-2.28778e-05
-2.24982e-05
-2.20383e-05
-2.14922e-05
-2.08579e-05
-2.01378e-05
-1.93388e-05
-1.84722e-05
-1.75527e-05
-1.65971e-05
-1.56255e-05
-1.46547e-05
-1.36961e-05
-1.27609e-05
-1.18589e-05
-1.09957e-05
-1.01741e-05
-9.39562e-06
-8.65986e-06
-7.96643e-06
-7.30835e-06
-6.74503e-06
-2.44034e-05
-2.43083e-05
-2.42005e-05
-2.40861e-05
-2.39549e-05
-2.37951e-05
-2.35952e-05
-2.33439e-05
-2.30298e-05
-2.26424e-05
-2.21731e-05
-2.16165e-05
-2.09708e-05
-2.02389e-05
-1.94282e-05
-1.85505e-05
-1.76208e-05
-1.66561e-05
-1.5677e-05
-1.46994e-05
-1.37343e-05
-1.27939e-05
-1.18874e-05
-1.10199e-05
-1.01943e-05
-9.41194e-06
-8.67239e-06
-7.9752e-06
-7.31423e-06
-6.74256e-06
-2.45286e-05
-2.4435e-05
-2.43285e-05
-2.42149e-05
-2.40837e-05
-2.39226e-05
-2.37201e-05
-2.34645e-05
-2.31445e-05
-2.27496e-05
-2.22713e-05
-2.17046e-05
-2.10481e-05
-2.03052e-05
-1.94838e-05
-1.8596e-05
-1.76574e-05
-1.66848e-05
-1.56993e-05
-1.47161e-05
-1.37459e-05
-1.28018e-05
-1.1892e-05
-1.10215e-05
-1.01931e-05
-9.40805e-06
-8.66588e-06
-7.96604e-06
-7.30326e-06
-6.72416e-06
-2.46143e-05
-2.45223e-05
-2.44173e-05
-2.43047e-05
-2.41736e-05
-2.40114e-05
-2.38064e-05
-2.35468e-05
-2.32211e-05
-2.28189e-05
-2.23321e-05
-2.17559e-05
-2.10893e-05
-2.03362e-05
-1.9505e-05
-1.86083e-05
-1.76619e-05
-1.66829e-05
-1.5692e-05
-1.47045e-05
-1.37309e-05
-1.27842e-05
-1.18724e-05
-1.10002e-05
-1.01703e-05
-9.38372e-06
-8.64009e-06
-7.93874e-06
-7.27524e-06
-6.68963e-06
-2.46595e-05
-2.45693e-05
-2.44661e-05
-2.43547e-05
-2.42237e-05
-2.40606e-05
-2.38533e-05
-2.35899e-05
-2.32587e-05
-2.28497e-05
-2.23548e-05
-2.17696e-05
-2.10936e-05
-2.03313e-05
-1.94913e-05
-1.85869e-05
-1.76339e-05
-1.66499e-05
-1.56549e-05
-1.46643e-05
-1.36888e-05
-1.2741e-05
-1.18285e-05
-1.09559e-05
-1.01256e-05
-9.33876e-06
-8.59485e-06
-7.89314e-06
-7.23004e-06
-6.63885e-06
-2.46634e-05
-2.45753e-05
-2.4474e-05
-2.43639e-05
-2.42334e-05
-2.40695e-05
-2.38601e-05
-2.3593e-05
-2.32567e-05
-2.28412e-05
-2.23388e-05
-2.17452e-05
-2.10607e-05
-2.029e-05
-1.94424e-05
-1.85314e-05
-1.75733e-05
-1.65856e-05
-1.55877e-05
-1.45954e-05
-1.36195e-05
-1.26719e-05
-1.176e-05
-1.08882e-05
-1.0059e-05
-9.27302e-06
-8.53002e-06
-7.82912e-06
-7.16754e-06
-6.57171e-06
-2.46252e-05
-2.45394e-05
-2.44403e-05
-2.43317e-05
-2.42018e-05
-2.40374e-05
-2.3826e-05
-2.35556e-05
-2.32145e-05
-2.2793e-05
-2.22835e-05
-2.16824e-05
-2.09902e-05
-2.02121e-05
-1.93579e-05
-1.84416e-05
-1.74797e-05
-1.64897e-05
-1.54903e-05
-1.44976e-05
-1.35228e-05
-1.25768e-05
-1.16669e-05
-1.07972e-05
-9.97018e-06
-9.18642e-06
-8.44553e-06
-7.7466e-06
-7.08767e-06
-6.48816e-06
-2.45446e-05
-2.44612e-05
-2.43645e-05
-2.42576e-05
-2.41284e-05
-2.39636e-05
-2.37506e-05
-2.34771e-05
-2.31316e-05
-2.27045e-05
-2.21886e-05
-2.15806e-05
-2.08816e-05
-2.00972e-05
-1.92377e-05
-1.83174e-05
-1.73529e-05
-1.63622e-05
-1.53626e-05
-1.43711e-05
-1.33986e-05
-1.24557e-05
-1.1549e-05
-1.06828e-05
-9.85927e-06
-9.07891e-06
-8.34134e-06
-7.64557e-06
-6.99042e-06
-6.38819e-06
-2.44208e-05
-2.43401e-05
-2.4246e-05
-2.4141e-05
-2.40128e-05
-2.38478e-05
-2.36333e-05
-2.33571e-05
-2.30076e-05
-2.25755e-05
-2.20538e-05
-2.14398e-05
-2.07348e-05
-1.99452e-05
-1.90816e-05
-1.81586e-05
-1.7193e-05
-1.62029e-05
-1.52048e-05
-1.42157e-05
-1.32471e-05
-1.23085e-05
-1.14065e-05
-1.05451e-05
-9.72624e-06
-8.95052e-06
-8.21746e-06
-7.52603e-06
-6.87578e-06
-6.27188e-06
-2.42536e-05
-2.41757e-05
-2.40844e-05
-2.39815e-05
-2.38545e-05
-2.36896e-05
-2.34739e-05
-2.31953e-05
-2.28423e-05
-2.24056e-05
-2.18789e-05
-2.12596e-05
-2.05498e-05
-1.97561e-05
-1.88896e-05
-1.79652e-05
-1.69999e-05
-1.60118e-05
-1.50168e-05
-1.40316e-05
-1.30682e-05
-1.21353e-05
-1.12393e-05
-1.0384e-05
-9.57117e-06
-8.80131e-06
-8.07398e-06
-7.388e-06
-6.74375e-06
-6.13941e-06
9.78314e-07
9.16797e-07
8.50953e-07
7.82111e-07
7.12573e-07
6.43811e-07
5.76879e-07
5.12594e-07
4.51589e-07
3.94319e-07
3.41066e-07
2.91951e-07
2.4697e-07
2.0605e-07
1.69066e-07
1.35865e-07
1.06271e-07
8.00868e-08
5.71089e-08
3.712e-08
1.99033e-08
5.23337e-09
-7.10069e-09
-1.73093e-08
-2.55997e-08
-3.21643e-08
-3.72044e-08
-4.08851e-08
-4.33876e-08
-4.4851e-08
-4.54363e-08
-4.52627e-08
-4.44762e-08
-4.31678e-08
-4.14575e-08
-3.94316e-08
-3.71623e-08
-3.47446e-08
-3.22189e-08
-2.96548e-08
-2.70993e-08
-2.45722e-08
-2.21372e-08
-1.97974e-08
-1.75871e-08
-1.55164e-08
-1.35956e-08
-1.18156e-08
-1.02008e-08
-8.72724e-09
-7.39886e-09
-6.21473e-09
-5.13172e-09
-4.21541e-09
-3.29334e-09
-2.68817e-09
-1.83133e-09
-1.40667e-09
-7.13932e-10
-9.21382e-10
9.6494e-07
9.0596e-07
8.41805e-07
7.74363e-07
7.06042e-07
6.38321e-07
5.72275e-07
5.08745e-07
4.48376e-07
3.91641e-07
3.38838e-07
2.90097e-07
2.45432e-07
2.04774e-07
1.68009e-07
1.34991e-07
1.05548e-07
7.94902e-08
5.66169e-08
3.67145e-08
1.95691e-08
4.9585e-09
-7.32613e-09
-1.74944e-08
-2.57514e-08
-3.22887e-08
-3.7306e-08
-4.09681e-08
-4.34561e-08
-4.49064e-08
-4.54811e-08
-4.52995e-08
-4.45046e-08
-4.31924e-08
-4.14751e-08
-3.94475e-08
-3.71734e-08
-3.47536e-08
-3.22271e-08
-2.96569e-08
-2.71076e-08
-2.4572e-08
-2.21407e-08
-1.98012e-08
-1.75841e-08
-1.55214e-08
-1.3591e-08
-1.18196e-08
-1.01986e-08
-8.7276e-09
-7.39858e-09
-6.21291e-09
-5.13615e-09
-4.20932e-09
-3.29777e-09
-2.68746e-09
-1.83075e-09
-1.40625e-09
-7.15364e-10
-9.16145e-10
9.38236e-07
8.84316e-07
8.23527e-07
7.58877e-07
6.92985e-07
6.27343e-07
5.63068e-07
5.01044e-07
4.41948e-07
3.86284e-07
3.34377e-07
2.86389e-07
2.42352e-07
2.02221e-07
1.65895e-07
1.33242e-07
1.04102e-07
7.82974e-08
5.56332e-08
3.59033e-08
1.89008e-08
4.40937e-09
-7.77688e-09
-1.78644e-08
-2.60548e-08
-3.25378e-08
-3.7509e-08
-4.11344e-08
-4.35917e-08
-4.50163e-08
-4.55701e-08
-4.53719e-08
-4.45621e-08
-4.32402e-08
-4.15114e-08
-3.94784e-08
-3.71954e-08
-3.47717e-08
-3.22414e-08
-2.96642e-08
-2.71188e-08
-2.45745e-08
-2.21463e-08
-1.98065e-08
-1.75822e-08
-1.55274e-08
-1.35865e-08
-1.18233e-08
-1.01962e-08
-8.72779e-09
-7.39704e-09
-6.20983e-09
-5.13931e-09
-4.2034e-09
-3.30119e-09
-2.68487e-09
-1.82984e-09
-1.40628e-09
-7.1867e-10
-9.04036e-10
8.98291e-07
8.51927e-07
7.96163e-07
7.3568e-07
6.73421e-07
6.10888e-07
5.49264e-07
4.89494e-07
4.32306e-07
3.78245e-07
3.27684e-07
2.80823e-07
2.37731e-07
1.98388e-07
1.6272e-07
1.30616e-07
1.01933e-07
7.6506e-08
5.41557e-08
3.46856e-08
1.7898e-08
3.58484e-09
-8.45377e-09
-1.84196e-08
-2.651e-08
-3.29112e-08
-3.78139e-08
-4.13836e-08
-4.37946e-08
-4.51809e-08
-4.57035e-08
-4.54802e-08
-4.46484e-08
-4.33109e-08
-4.15659e-08
-3.95238e-08
-3.72288e-08
-3.47988e-08
-3.22623e-08
-2.9677e-08
-2.71336e-08
-2.458e-08
-2.21539e-08
-1.98125e-08
-1.75817e-08
-1.55336e-08
-1.35821e-08
-1.18271e-08
-1.01931e-08
-8.72788e-09
-7.39487e-09
-6.20687e-09
-5.14124e-09
-4.19795e-09
-3.30367e-09
-2.68168e-09
-1.82915e-09
-1.40606e-09
-7.23558e-10
-8.85836e-10
8.45239e-07
8.08885e-07
7.5978e-07
7.04814e-07
6.47377e-07
5.88974e-07
5.30873e-07
4.74102e-07
4.1945e-07
3.67526e-07
3.18756e-07
2.73398e-07
2.31564e-07
1.93274e-07
1.58484e-07
1.27111e-07
9.9036e-08
7.41146e-08
5.21832e-08
3.30602e-08
1.65595e-08
2.48439e-09
-9.35723e-09
-1.91607e-08
-2.71176e-08
-3.34093e-08
-3.82208e-08
-4.17156e-08
-4.40651e-08
-4.54007e-08
-4.58817e-08
-4.56243e-08
-4.47635e-08
-4.34047e-08
-4.16389e-08
-3.95836e-08
-3.72736e-08
-3.4835e-08
-3.22898e-08
-2.96952e-08
-2.71517e-08
-2.45885e-08
-2.21634e-08
-1.98192e-08
-1.75825e-08
-1.55396e-08
-1.35779e-08
-1.1831e-08
-1.01894e-08
-8.72785e-09
-7.3921e-09
-6.20408e-09
-5.14179e-09
-4.19318e-09
-3.30504e-09
-2.67796e-09
-1.82873e-09
-1.40556e-09
-7.2999e-10
-8.61682e-10
7.79256e-07
7.55312e-07
7.14467e-07
6.66335e-07
6.1489e-07
5.61624e-07
5.07907e-07
4.54872e-07
4.03384e-07
3.54124e-07
3.07592e-07
2.64111e-07
2.23849e-07
1.86875e-07
1.53183e-07
1.22724e-07
9.54105e-08
7.11213e-08
4.9714e-08
3.10255e-08
1.48844e-08
1.10688e-09
-1.04882e-08
-2.00885e-08
-2.7878e-08
-3.40324e-08
-3.873e-08
-4.21311e-08
-4.44034e-08
-4.56757e-08
-4.61045e-08
-4.58044e-08
-4.49077e-08
-4.35216e-08
-4.17303e-08
-3.96579e-08
-3.73298e-08
-3.48802e-08
-3.23241e-08
-2.97191e-08
-2.71732e-08
-2.46002e-08
-2.21748e-08
-1.98266e-08
-1.75848e-08
-1.55455e-08
-1.3574e-08
-1.18349e-08
-1.0185e-08
-8.72764e-09
-7.38883e-09
-6.20136e-09
-5.14102e-09
-4.18909e-09
-3.30526e-09
-2.67384e-09
-1.82853e-09
-1.40477e-09
-7.37964e-10
-8.31708e-10
7.00562e-07
6.91358e-07
6.60335e-07
6.2031e-07
5.76007e-07
5.28867e-07
4.80385e-07
4.31813e-07
3.84109e-07
3.38039e-07
2.94189e-07
2.52958e-07
2.14583e-07
1.79187e-07
1.46814e-07
1.17453e-07
9.10529e-08
6.75233e-08
4.6746e-08
2.85794e-08
1.28707e-08
-5.4891e-10
-1.18479e-08
-2.12037e-08
-2.87921e-08
-3.47812e-08
-3.93421e-08
-4.26303e-08
-4.48098e-08
-4.60061e-08
-4.63722e-08
-4.60207e-08
-4.5081e-08
-4.36616e-08
-4.18401e-08
-3.97468e-08
-3.73976e-08
-3.49344e-08
-3.23649e-08
-2.97485e-08
-2.7198e-08
-2.4615e-08
-2.21881e-08
-1.98348e-08
-1.75884e-08
-1.55512e-08
-1.35705e-08
-1.18386e-08
-1.01802e-08
-8.72713e-09
-7.38516e-09
-6.19855e-09
-5.1391e-09
-4.18552e-09
-3.30435e-09
-2.66942e-09
-1.82845e-09
-1.40371e-09
-7.47607e-10
-7.95945e-10
6.09422e-07
6.17201e-07
5.97516e-07
5.66824e-07
5.30782e-07
4.90738e-07
4.48325e-07
4.04936e-07
3.61629e-07
3.19271e-07
2.78544e-07
2.39936e-07
2.0376e-07
1.70205e-07
1.39371e-07
1.11293e-07
8.59599e-08
6.3317e-08
4.32762e-08
2.57199e-08
1.05166e-08
-2.48471e-09
-1.34378e-08
-2.2508e-08
-2.98609e-08
-3.56566e-08
-4.00576e-08
-4.32137e-08
-4.52847e-08
-4.63922e-08
-4.6685e-08
-4.62734e-08
-4.52835e-08
-4.38248e-08
-4.19686e-08
-3.98505e-08
-3.74771e-08
-3.49977e-08
-3.24125e-08
-2.97836e-08
-2.72262e-08
-2.46331e-08
-2.22032e-08
-1.9844e-08
-1.75933e-08
-1.55566e-08
-1.35676e-08
-1.1842e-08
-1.01752e-08
-8.72623e-09
-7.3812e-09
-6.19548e-09
-5.13626e-09
-4.18228e-09
-3.30242e-09
-2.66481e-09
-1.8284e-09
-1.40241e-09
-7.58805e-10
-7.54706e-10
5.0614e-07
5.33042e-07
5.26164e-07
5.05974e-07