/*--------------------------------*- C++ -*----------------------------------*\
| =========                 |                                                 |
| \\      /  F ield         | foam-extend: Open Source CFD                    |
|  \\    /   O peration     | Version:     4.0                                |
|   \\  /    A nd           | Web:         http://www.foam-extend.org         |
|    \\/     M anipulation  |                                                 |
\*---------------------------------------------------------------------------*/
FoamFile
{
    version     2.0;
    format      ascii;
    class       volScalarField;
    location    "35";
    object      p;
}
// * * * * * * * * * * * * * * * * * * * * * * * * * * * * * * * * * * * * * //

dimensions      [0 2 -2 0 0 0 0];

internalField   nonuniform List<scalar> 
36000
(
-7.04028e-06
-7.09876e-06
-7.15987e-06
-7.21521e-06
-7.2655e-06
-7.31168e-06
-7.3538e-06
-7.39169e-06
-7.4252e-06
-7.45422e-06
-7.47863e-06
-7.49824e-06
-7.51277e-06
-7.52176e-06
-7.52457e-06
-7.52037e-06
-7.50799e-06
-7.48598e-06
-7.4525e-06
-7.4053e-06
-7.34171e-06
-7.25864e-06
-7.15261e-06
-7.01974e-06
-6.85519e-06
-6.65586e-06
-6.41806e-06
-6.13763e-06
-5.81185e-06
-5.43569e-06
-7.06199e-06
-7.11967e-06
-7.17997e-06
-7.23458e-06
-7.28422e-06
-7.32982e-06
-7.37142e-06
-7.40885e-06
-7.44197e-06
-7.47067e-06
-7.49482e-06
-7.51425e-06
-7.52866e-06
-7.53762e-06
-7.54049e-06
-7.53643e-06
-7.5243e-06
-7.50265e-06
-7.46964e-06
-7.42304e-06
-7.36018e-06
-7.27798e-06
-7.17297e-06
-7.04127e-06
-6.87837e-06
-6.68031e-06
-6.44386e-06
-6.16509e-06
-5.84114e-06
-5.46518e-06
-7.10516e-06
-7.16128e-06
-7.21995e-06
-7.27312e-06
-7.32148e-06
-7.36592e-06
-7.40649e-06
-7.44301e-06
-7.47534e-06
-7.50339e-06
-7.52703e-06
-7.54609e-06
-7.56027e-06
-7.56915e-06
-7.57212e-06
-7.56834e-06
-7.55669e-06
-7.53574e-06
-7.50367e-06
-7.45825e-06
-7.39683e-06
-7.31635e-06
-7.21334e-06
-7.08397e-06
-6.92382e-06
-6.7286e-06
-6.49504e-06
-6.21949e-06
-5.89903e-06
-5.52324e-06
-7.16905e-06
-7.22285e-06
-7.27915e-06
-7.33019e-06
-7.37666e-06
-7.41939e-06
-7.45843e-06
-7.49359e-06
-7.52476e-06
-7.55183e-06
-7.5747e-06
-7.59318e-06
-7.607e-06
-7.61575e-06
-7.61884e-06
-7.61546e-06
-7.6045e-06
-7.58455e-06
-7.55383e-06
-7.51012e-06
-7.4508e-06
-7.37282e-06
-7.27275e-06
-7.14676e-06
-6.99037e-06
-6.79936e-06
-6.57018e-06
-6.29934e-06
-5.98388e-06
-5.60794e-06
-7.25255e-06
-7.30336e-06
-7.35657e-06
-7.40486e-06
-7.44886e-06
-7.48936e-06
-7.52638e-06
-7.55977e-06
-7.5894e-06
-7.61518e-06
-7.637e-06
-7.6547e-06
-7.66802e-06
-7.67656e-06
-7.67977e-06
-7.67685e-06
-7.66673e-06
-7.64804e-06
-7.61902e-06
-7.57748e-06
-7.52084e-06
-7.44609e-06
-7.3498e-06
-7.22804e-06
-7.07642e-06
-6.89075e-06
-6.66726e-06
-6.40253e-06
-6.09347e-06
-5.71641e-06
-7.35427e-06
-7.40148e-06
-7.45096e-06
-7.49593e-06
-7.53694e-06
-7.57472e-06
-7.60929e-06
-7.64049e-06
-7.66822e-06
-7.69239e-06
-7.7129e-06
-7.72959e-06
-7.74224e-06
-7.75047e-06
-7.75375e-06
-7.75132e-06
-7.74215e-06
-7.72491e-06
-7.69786e-06
-7.65888e-06
-7.60542e-06
-7.5345e-06
-7.44263e-06
-7.32585e-06
-7.17991e-06
-7.00053e-06
-6.78383e-06
-6.52641e-06
-6.22515e-06
-5.84436e-06
-7.47257e-06
-7.51565e-06
-7.56085e-06
-7.60198e-06
-7.63953e-06
-7.67416e-06
-7.70587e-06
-7.73452e-06
-7.76e-06
-7.78224e-06
-7.80116e-06
-7.81663e-06
-7.82841e-06
-7.83619e-06
-7.83945e-06
-7.83748e-06
-7.82931e-06
-7.81363e-06
-7.78876e-06
-7.75264e-06
-7.70273e-06
-7.63602e-06
-7.54906e-06
-7.43794e-06
-7.29844e-06
-7.12615e-06
-6.91707e-06
-6.66799e-06
-6.3762e-06
-5.9844e-06
-7.60561e-06
-7.64413e-06
-7.68458e-06
-7.72145e-06
-7.75514e-06
-7.78623e-06
-7.81471e-06
-7.84046e-06
-7.86337e-06
-7.88339e-06
-7.90045e-06
-7.91443e-06
-7.92514e-06
-7.93229e-06
-7.9354e-06
-7.93382e-06
-7.92662e-06
-7.91255e-06
-7.88997e-06
-7.85683e-06
-7.81063e-06
-7.74843e-06
-7.66679e-06
-7.56184e-06
-7.42934e-06
-7.26474e-06
-7.06384e-06
-6.82378e-06
-6.54482e-06
-6.12867e-06
-7.75143e-06
-7.78505e-06
-7.8204e-06
-7.85265e-06
-7.88215e-06
-7.90937e-06
-7.93431e-06
-7.95684e-06
-7.97688e-06
-7.99439e-06
-8.00931e-06
-8.02155e-06
-8.03096e-06
-8.03726e-06
-8.04006e-06
-8.03875e-06
-8.03244e-06
-8.0199e-06
-7.99954e-06
-7.96938e-06
-7.92699e-06
-7.86946e-06
-7.7934e-06
-7.69495e-06
-7.56982e-06
-7.41332e-06
-7.221e-06
-6.98981e-06
-6.7288e-06
-6.3086e-06
-7.90799e-06
-7.93648e-06
-7.96646e-06
-7.99384e-06
-8.01889e-06
-8.04198e-06
-8.0631e-06
-8.08214e-06
-8.09904e-06
-8.11376e-06
-8.12628e-06
-8.13651e-06
-8.14436e-06
-8.14959e-06
-8.15188e-06
-8.15065e-06
-8.14502e-06
-8.13381e-06
-8.11553e-06
-8.08826e-06
-8.04966e-06
-7.99684e-06
-7.92645e-06
-7.83462e-06
-7.71698e-06
-7.56884e-06
-7.38561e-06
-7.16312e-06
-6.91021e-06
-6.50024e-06
-8.07327e-06
-8.0965e-06
-8.12096e-06
-8.1433e-06
-8.1637e-06
-8.18246e-06
-8.19954e-06
-8.21487e-06
-8.22838e-06
-8.24006e-06
-8.24989e-06
-8.25786e-06
-8.26388e-06
-8.2678e-06
-8.26933e-06
-8.26788e-06
-8.26263e-06
-8.2525e-06
-8.23607e-06
-8.21153e-06
-8.17656e-06
-8.12836e-06
-8.06356e-06
-7.9783e-06
-7.86821e-06
-7.72834e-06
-7.55433e-06
-7.34198e-06
-7.09545e-06
-6.69031e-06
-8.24531e-06
-8.26325e-06
-8.28213e-06
-8.29934e-06
-8.31498e-06
-8.32926e-06
-8.34214e-06
-8.35356e-06
-8.36346e-06
-8.37186e-06
-8.37877e-06
-8.3842e-06
-8.38814e-06
-8.39049e-06
-8.39091e-06
-8.38888e-06
-8.38367e-06
-8.37431e-06
-8.35945e-06
-8.33736e-06
-8.30577e-06
-8.26191e-06
-8.20248e-06
-8.12359e-06
-8.02078e-06
-7.88908e-06
-7.72406e-06
-7.52136e-06
-7.28317e-06
-6.8774e-06
-8.42227e-06
-8.43498e-06
-8.44832e-06
-8.46039e-06
-8.47122e-06
-8.48094e-06
-8.4895e-06
-8.49685e-06
-8.50297e-06
-8.50787e-06
-8.51163e-06
-8.51431e-06
-8.51591e-06
-8.51633e-06
-8.51524e-06
-8.51225e-06
-8.50672e-06
-8.49775e-06
-8.48411e-06
-8.4641e-06
-8.43553e-06
-8.39569e-06
-8.34127e-06
-8.26838e-06
-8.1725e-06
-8.04858e-06
-7.8921e-06
-7.69845e-06
-7.46937e-06
-7.06008e-06
-8.6025e-06
-8.61012e-06
-8.61803e-06
-8.62503e-06
-8.63107e-06
-8.63619e-06
-8.64035e-06
-8.64351e-06
-8.6457e-06
-8.64697e-06
-8.64742e-06
-8.6471e-06
-8.64602e-06
-8.6441e-06
-8.64112e-06
-8.63677e-06
-8.63053e-06
-8.62159e-06
-8.60876e-06
-8.5904e-06
-8.5644e-06
-8.5281e-06
-8.47821e-06
-8.41081e-06
-8.32137e-06
-8.2047e-06
-8.05621e-06
-7.87095e-06
-7.65094e-06
-7.23627e-06
-8.78453e-06
-8.78727e-06
-8.78995e-06
-8.79203e-06
-8.79339e-06
-8.79398e-06
-8.79372e-06
-8.79264e-06
-8.79079e-06
-8.78829e-06
-8.7852e-06
-8.78154e-06
-8.77739e-06
-8.77274e-06
-8.76752e-06
-8.76149e-06
-8.75417e-06
-8.74482e-06
-8.73232e-06
-8.71511e-06
-8.69116e-06
-8.65784e-06
-8.6119e-06
-8.54941e-06
-8.46579e-06
-8.35574e-06
-8.21454e-06
-8.03692e-06
-7.82558e-06
-7.40399e-06
-8.96703e-06
-8.96516e-06
-8.96287e-06
-8.96022e-06
-8.95704e-06
-8.95319e-06
-8.94861e-06
-8.94331e-06
-8.93735e-06
-8.93082e-06
-8.92385e-06
-8.91657e-06
-8.90913e-06
-8.90156e-06
-8.89381e-06
-8.88572e-06
-8.8769e-06
-8.86667e-06
-8.85399e-06
-8.8374e-06
-8.81492e-06
-8.78398e-06
-8.74134e-06
-8.68309e-06
-8.60458e-06
-8.50038e-06
-8.36569e-06
-8.19482e-06
-7.9916e-06
-7.56166e-06
-9.14903e-06
-9.14286e-06
-9.13588e-06
-9.12871e-06
-9.12112e-06
-9.11291e-06
-9.10401e-06
-9.09446e-06
-9.08432e-06
-9.07373e-06
-9.06283e-06
-9.05183e-06
-9.0409e-06
-9.03011e-06
-9.0195e-06
-9.00897e-06
-8.99821e-06
-8.98662e-06
-8.97326e-06
-8.95674e-06
-8.93514e-06
-8.90592e-06
-8.86591e-06
-8.81115e-06
-8.73695e-06
-8.63775e-06
-8.50867e-06
-8.34351e-06
-8.14777e-06
-7.70814e-06
-9.32985e-06
-9.31973e-06
-9.30839e-06
-9.29697e-06
-9.28517e-06
-9.27274e-06
-9.25961e-06
-9.24584e-06
-9.23152e-06
-9.2168e-06
-9.20188e-06
-9.18701e-06
-9.17236e-06
-9.15808e-06
-9.14429e-06
-9.13096e-06
-9.11785e-06
-9.10446e-06
-9.08991e-06
-9.07289e-06
-9.05156e-06
-9.02342e-06
-8.9853e-06
-8.93326e-06
-8.86252e-06
-8.76739e-06
-8.64292e-06
-8.48232e-06
-8.29327e-06
-7.84269e-06
-9.50907e-06
-9.49533e-06
-9.47998e-06
-9.46458e-06
-9.4488e-06
-9.43232e-06
-9.41508e-06
-9.39716e-06
-9.37867e-06
-9.3598e-06
-9.34078e-06
-9.3219e-06
-9.30334e-06
-9.28534e-06
-9.26809e-06
-9.25163e-06
-9.2358e-06
-9.22018e-06
-9.20396e-06
-9.18592e-06
-9.16425e-06
-9.13652e-06
-9.09956e-06
-9.0494e-06
-8.9812e-06
-8.88917e-06
-8.76825e-06
-8.611e-06
-8.42765e-06
-7.96494e-06
-9.68651e-06
-9.6695e-06
-9.65047e-06
-9.63137e-06
-9.61183e-06
-9.59148e-06
-9.57027e-06
-9.54828e-06
-9.52567e-06
-9.50264e-06
-9.4795e-06
-9.45648e-06
-9.43386e-06
-9.41196e-06
-9.39102e-06
-9.37115e-06
-9.35226e-06
-9.33401e-06
-9.31568e-06
-9.29609e-06
-9.27352e-06
-9.24553e-06
-9.20898e-06
-9.15985e-06
-9.09324e-06
-9.00324e-06
-8.88474e-06
-8.7296e-06
-8.5508e-06
-8.07489e-06
-9.86222e-06
-9.84227e-06
-9.81988e-06
-9.79736e-06
-9.77428e-06
-9.75024e-06
-9.72519e-06
-9.69925e-06
-9.67258e-06
-9.64543e-06
-9.61811e-06
-9.59089e-06
-9.56412e-06
-9.53817e-06
-9.51335e-06
-9.48983e-06
-9.46759e-06
-9.44637e-06
-9.42551e-06
-9.40391e-06
-9.37987e-06
-9.35098e-06
-9.31407e-06
-9.2651e-06
-9.19909e-06
-9.10999e-06
-8.99268e-06
-8.83837e-06
-8.66291e-06
-8.17281e-06
-1.00365e-05
-1.00139e-05
-9.98842e-06
-9.96272e-06
-9.93631e-06
-9.90876e-06
-9.88003e-06
-9.85024e-06
-9.8196e-06
-9.78839e-06
-9.75688e-06
-9.72542e-06
-9.69444e-06
-9.66435e-06
-9.6355e-06
-9.60813e-06
-9.58231e-06
-9.55781e-06
-9.53407e-06
-9.51002e-06
-9.48396e-06
-9.45352e-06
-9.4155e-06
-9.36579e-06
-9.29934e-06
-9.20996e-06
-9.0925e-06
-8.93775e-06
-8.76428e-06
-8.25925e-06
-1.02097e-05
-1.01847e-05
-1.01564e-05
-1.01278e-05
-1.00983e-05
-1.00674e-05
-1.00351e-05
-1.00016e-05
-9.96706e-06
-9.93182e-06
-9.89616e-06
-9.86048e-06
-9.82526e-06
-9.79096e-06
-9.75799e-06
-9.72663e-06
-9.69702e-06
-9.66901e-06
-9.64206e-06
-9.61513e-06
-9.58654e-06
-9.55392e-06
-9.51402e-06
-9.46266e-06
-9.39469e-06
-9.30377e-06
-9.18484e-06
-9.02819e-06
-8.85525e-06
-8.33499e-06
-1.03824e-05
-1.03553e-05
-1.03244e-05
-1.0293e-05
-1.02605e-05
-1.02265e-05
-1.01908e-05
-1.01536e-05
-1.01154e-05
-1.00761e-05
-1.00364e-05
-9.99653e-06
-9.95709e-06
-9.91856e-06
-9.8814e-06
-9.84596e-06
-9.81242e-06
-9.78069e-06
-9.75023e-06
-9.72002e-06
-9.68841e-06
-9.65297e-06
-9.61042e-06
-9.55648e-06
-9.48589e-06
-9.39211e-06
-9.2703e-06
-9.1102e-06
-8.93594e-06
-8.40099e-06
-1.05554e-05
-1.05262e-05
-1.0493e-05
-1.0459e-05
-1.04236e-05
-1.03865e-05
-1.03475e-05
-1.03069e-05
-1.02649e-05
-1.02218e-05
-1.01781e-05
-1.01341e-05
-1.00905e-05
-1.00477e-05
-1.00064e-05
-9.96678e-06
-9.92921e-06
-9.89355e-06
-9.8593e-06
-9.82546e-06
-9.79033e-06
-9.75146e-06
-9.70547e-06
-9.64799e-06
-9.5736e-06
-9.47574e-06
-9.34939e-06
-9.18431e-06
-9.00635e-06
-8.45845e-06
-1.07293e-05
-1.06982e-05
-1.06627e-05
-1.06262e-05
-1.05881e-05
-1.05481e-05
-1.05059e-05
-1.04619e-05
-1.04163e-05
-1.03694e-05
-1.03217e-05
-1.02737e-05
-1.0226e-05
-1.0179e-05
-1.01335e-05
-1.00897e-05
-1.0048e-05
-1.00083e-05
-9.97001e-06
-9.93217e-06
-9.89304e-06
-9.85011e-06
-9.79988e-06
-9.73788e-06
-9.65849e-06
-9.55522e-06
-9.42267e-06
-9.25112e-06
-9.06645e-06
-8.50991e-06
-1.09049e-05
-1.0872e-05
-1.08342e-05
-1.07953e-05
-1.07546e-05
-1.07116e-05
-1.06664e-05
-1.06191e-05
-1.057e-05
-1.05194e-05
-1.04679e-05
-1.04159e-05
-1.03641e-05
-1.03131e-05
-1.02634e-05
-1.02155e-05
-1.01695e-05
-1.01255e-05
-1.0083e-05
-1.00408e-05
-9.99717e-06
-9.94952e-06
-9.89425e-06
-9.8267e-06
-9.74121e-06
-9.63108e-06
-9.49063e-06
-9.31104e-06
-9.11463e-06
-8.55676e-06
-1.1083e-05
-1.10482e-05
-1.10082e-05
-1.09668e-05
-1.09236e-05
-1.08778e-05
-1.08296e-05
-1.0779e-05
-1.07265e-05
-1.06723e-05
-1.06171e-05
-1.05613e-05
-1.05055e-05
-1.04504e-05
-1.03966e-05
-1.03444e-05
-1.02942e-05
-1.02459e-05
-1.01988e-05
-1.01518e-05
-1.01032e-05
-1.00502e-05
-9.98906e-06
-9.91494e-06
-9.82224e-06
-9.7039e-06
-9.55379e-06
-9.36372e-06
-9.14329e-06
-8.58713e-06
-1.12641e-05
-1.12274e-05
-1.11852e-05
-1.11415e-05
-1.10956e-05
-1.10471e-05
-1.09958e-05
-1.09421e-05
-1.08862e-05
-1.08286e-05
-1.07697e-05
-1.07101e-05
-1.06505e-05
-1.05915e-05
-1.05335e-05
-1.04772e-05
-1.04226e-05
-1.03697e-05
-1.03178e-05
-1.02657e-05
-1.02116e-05
-1.01525e-05
-1.00846e-05
-1.00031e-05
-9.90202e-06
-9.77452e-06
-9.61346e-06
-9.40981e-06
-9.14429e-06
-8.58833e-06
-1.14489e-05
-1.14103e-05
-1.13657e-05
-1.13196e-05
-1.12712e-05
-1.12198e-05
-1.11656e-05
-1.11088e-05
-1.10496e-05
-1.09886e-05
-1.09262e-05
-1.08629e-05
-1.07995e-05
-1.07365e-05
-1.06745e-05
-1.06139e-05
-1.05549e-05
-1.04972e-05
-1.04403e-05
-1.03827e-05
-1.03224e-05
-1.02566e-05
-1.0181e-05
-1.00912e-05
-9.98109e-06
-9.84421e-06
-9.67281e-06
-9.4583e-06
-9.1501e-06
-8.68854e-06
-1.1638e-05
-1.15973e-05
-1.15503e-05
-1.15017e-05
-1.14506e-05
-1.13965e-05
-1.13393e-05
-1.12794e-05
-1.1217e-05
-1.11527e-05
-1.10868e-05
-1.102e-05
-1.09528e-05
-1.0886e-05
-1.08199e-05
-1.0755e-05
-1.06914e-05
-1.06288e-05
-1.05664e-05
-1.05028e-05
-1.04358e-05
-1.03623e-05
-1.02784e-05
-1.01793e-05
-1.00594e-05
-9.91321e-06
-9.73359e-06
-9.51899e-06
-9.23255e-06
-9.21333e-06
-1.18316e-05
-1.17887e-05
-1.17392e-05
-1.1688e-05
-1.16342e-05
-1.15773e-05
-1.15172e-05
-1.14542e-05
-1.13887e-05
-1.1321e-05
-1.12517e-05
-1.11814e-05
-1.11106e-05
-1.10399e-05
-1.09698e-05
-1.09005e-05
-1.08321e-05
-1.07643e-05
-1.06961e-05
-1.06259e-05
-1.05515e-05
-1.04696e-05
-1.03763e-05
-1.02667e-05
-1.01357e-05
-9.97812e-06
-9.78788e-06
-9.56763e-06
-9.28884e-06
-9.32245e-06
-1.203e-05
-1.19847e-05
-1.19326e-05
-1.18787e-05
-1.18222e-05
-1.17624e-05
-1.16994e-05
-1.16333e-05
-1.15647e-05
-1.14938e-05
-1.14211e-05
-1.13473e-05
-1.12729e-05
-1.11983e-05
-1.11241e-05
-1.10503e-05
-1.0977e-05
-1.09037e-05
-1.08292e-05
-1.07519e-05
-1.06692e-05
-1.0578e-05
-1.04741e-05
-1.03528e-05
-1.02091e-05
-1.00381e-05
-9.83422e-06
-9.60117e-06
-9.30705e-06
-9.2873e-06
-1.22334e-05
-1.21856e-05
-1.21307e-05
-1.20739e-05
-1.20146e-05
-1.19519e-05
-1.18859e-05
-1.18168e-05
-1.17451e-05
-1.1671e-05
-1.1595e-05
-1.15177e-05
-1.14397e-05
-1.13612e-05
-1.12828e-05
-1.12044e-05
-1.11259e-05
-1.10466e-05
-1.09653e-05
-1.08802e-05
-1.07885e-05
-1.06871e-05
-1.05715e-05
-1.04372e-05
-1.02791e-05
-1.0093e-05
-9.87302e-06
-9.62283e-06
-9.30852e-06
-9.23846e-06
-1.24416e-05
-1.23911e-05
-1.23333e-05
-1.22736e-05
-1.22114e-05
-1.21458e-05
-1.20768e-05
-1.20047e-05
-1.19298e-05
-1.18525e-05
-1.17732e-05
-1.16925e-05
-1.16108e-05
-1.15284e-05
-1.14456e-05
-1.13623e-05
-1.12783e-05
-1.11927e-05
-1.11041e-05
-1.10104e-05
-1.09089e-05
-1.07961e-05
-1.06677e-05
-1.05191e-05
-1.03454e-05
-1.01425e-05
-9.90489e-06
-9.63558e-06
-9.30139e-06
-9.18605e-06
-1.26544e-05
-1.26012e-05
-1.25403e-05
-1.24776e-05
-1.24124e-05
-1.23438e-05
-1.22718e-05
-1.21966e-05
-1.21186e-05
-1.20381e-05
-1.19556e-05
-1.18714e-05
-1.17859e-05
-1.16995e-05
-1.16122e-05
-1.15238e-05
-1.14339e-05
-1.13414e-05
-1.12448e-05
-1.11418e-05
-1.10296e-05
-1.09045e-05
-1.07621e-05
-1.0598e-05
-1.04076e-05
-1.01867e-05
-9.93045e-06
-9.64134e-06
-9.28834e-06
-9.13119e-06
-1.28716e-05
-1.28155e-05
-1.27514e-05
-1.26856e-05
-1.26174e-05
-1.25458e-05
-1.24707e-05
-1.23924e-05
-1.23113e-05
-1.22277e-05
-1.21418e-05
-1.20541e-05
-1.19648e-05
-1.18741e-05
-1.1782e-05
-1.16882e-05
-1.1592e-05
-1.14921e-05
-1.13869e-05
-1.12738e-05
-1.11499e-05
-1.10114e-05
-1.08541e-05
-1.06735e-05
-1.04652e-05
-1.02256e-05
-9.95014e-06
-9.64125e-06
-9.27077e-06
-9.0753e-06
-1.30927e-05
-1.30335e-05
-1.29661e-05
-1.28972e-05
-1.28259e-05
-1.27512e-05
-1.26731e-05
-1.25917e-05
-1.25075e-05
-1.24206e-05
-1.23314e-05
-1.22401e-05
-1.21468e-05
-1.20518e-05
-1.19547e-05
-1.1855e-05
-1.1752e-05
-1.16441e-05
-1.15295e-05
-1.14055e-05
-1.1269e-05
-1.11161e-05
-1.09428e-05
-1.07448e-05
-1.05179e-05
-1.0259e-05
-9.96422e-06
-9.63597e-06
-9.24938e-06
-9.01909e-06
-1.33171e-05
-1.32548e-05
-1.31839e-05
-1.31118e-05
-1.30374e-05
-1.29596e-05
-1.28784e-05
-1.2794e-05
-1.27066e-05
-1.26165e-05
-1.25238e-05
-1.24288e-05
-1.23315e-05
-1.22318e-05
-1.21293e-05
-1.20234e-05
-1.1913e-05
-1.17965e-05
-1.16718e-05
-1.1536e-05
-1.13859e-05
-1.12178e-05
-1.10276e-05
-1.08113e-05
-1.05653e-05
-1.02868e-05
-9.97276e-06
-9.62582e-06
-9.22445e-06
-8.96235e-06
-1.3544e-05
-1.34785e-05
-1.34042e-05
-1.33288e-05
-1.32513e-05
-1.31704e-05
-1.30861e-05
-1.29986e-05
-1.29081e-05
-1.28146e-05
-1.27185e-05
-1.26196e-05
-1.2518e-05
-1.24134e-05
-1.23052e-05
-1.21926e-05
-1.20743e-05
-1.19484e-05
-1.18128e-05
-1.16643e-05
-1.14998e-05
-1.13155e-05
-1.11076e-05
-1.08724e-05
-1.06068e-05
-1.03086e-05
-9.97571e-06
-9.6109e-06
-9.19606e-06
-8.90505e-06
-1.37726e-05
-1.37039e-05
-1.36261e-05
-1.35475e-05
-1.34668e-05
-1.33828e-05
-1.32955e-05
-1.32049e-05
-1.31112e-05
-1.30144e-05
-1.29146e-05
-1.28118e-05
-1.27057e-05
-1.25958e-05
-1.24815e-05
-1.23617e-05
-1.22348e-05
-1.20989e-05
-1.19514e-05
-1.17895e-05
-1.16096e-05
-1.14084e-05
-1.1182e-05
-1.09275e-05
-1.0642e-05
-1.03243e-05
-9.97288e-06
-9.59107e-06
-9.16393e-06
-8.84704e-06
-1.40021e-05
-1.393e-05
-1.38488e-05
-1.37669e-05
-1.36831e-05
-1.35961e-05
-1.35057e-05
-1.3412e-05
-1.33151e-05
-1.32149e-05
-1.31115e-05
-1.30045e-05
-1.28935e-05
-1.27781e-05
-1.26572e-05
-1.25296e-05
-1.23935e-05
-1.22468e-05
-1.20867e-05
-1.19104e-05
-1.17144e-05
-1.14954e-05
-1.12501e-05
-1.09758e-05
-1.06705e-05
-1.03334e-05
-9.964e-06
-9.56607e-06
-9.12758e-06
-8.78761e-06
-1.42312e-05
-1.4156e-05
-1.40713e-05
-1.39862e-05
-1.38993e-05
-1.38092e-05
-1.37158e-05
-1.36191e-05
-1.35189e-05
-1.34153e-05
-1.3308e-05
-1.31966e-05
-1.30807e-05
-1.29593e-05
-1.28313e-05
-1.26953e-05
-1.25493e-05
-1.23909e-05
-1.22175e-05
-1.2026e-05
-1.18131e-05
-1.15757e-05
-1.13109e-05
-1.10166e-05
-1.06915e-05
-1.03354e-05
-9.94872e-06
-9.53555e-06
-9.08658e-06
-8.72592e-06
-1.4459e-05
-1.43806e-05
-1.42925e-05
-1.42042e-05
-1.41143e-05
-1.40213e-05
-1.39249e-05
-1.38251e-05
-1.37217e-05
-1.36146e-05
-1.35033e-05
-1.33873e-05
-1.32659e-05
-1.31381e-05
-1.30026e-05
-1.28576e-05
-1.2701e-05
-1.25303e-05
-1.23427e-05
-1.21351e-05
-1.19046e-05
-1.16483e-05
-1.13638e-05
-1.10494e-05
-1.07046e-05
-1.033e-05
-9.92669e-06
-9.49917e-06
-9.04056e-06
-8.66139e-06
-1.46843e-05
-1.46026e-05
-1.45112e-05
-1.44199e-05
-1.43271e-05
-1.42312e-05
-1.41319e-05
-1.4029e-05
-1.39224e-05
-1.38116e-05
-1.36961e-05
-1.35753e-05
-1.34482e-05
-1.33136e-05
-1.31699e-05
-1.30153e-05
-1.28473e-05
-1.26635e-05
-1.24609e-05
-1.22367e-05
-1.1988e-05
-1.17123e-05
-1.14078e-05
-1.10734e-05
-1.07092e-05
-1.03166e-05
-9.89751e-06
-9.4566e-06
-8.98933e-06
-8.5939e-06
-1.49056e-05
-1.48209e-05
-1.47263e-05
-1.4632e-05
-1.45363e-05
-1.44377e-05
-1.43355e-05
-1.42296e-05
-1.41197e-05
-1.40052e-05
-1.38854e-05
-1.37595e-05
-1.36263e-05
-1.34844e-05
-1.33321e-05
-1.31671e-05
-1.29871e-05
-1.27894e-05
-1.25712e-05
-1.23296e-05
-1.20621e-05
-1.17668e-05
-1.14421e-05
-1.10879e-05
-1.07048e-05
-1.02949e-05
-9.86074e-06
-9.40741e-06
-8.93255e-06
-8.52315e-06
-1.51216e-05
-1.5034e-05
-1.49363e-05
-1.48392e-05
-1.47408e-05
-1.46395e-05
-1.45346e-05
-1.44257e-05
-1.43124e-05
-1.41941e-05
-1.40698e-05
-1.39385e-05
-1.37989e-05
-1.36492e-05
-1.34876e-05
-1.33117e-05
-1.31189e-05
-1.29066e-05
-1.26721e-05
-1.24126e-05
-1.2126e-05
-1.18108e-05
-1.14661e-05
-1.10923e-05
-1.06908e-05
-1.02643e-05
-9.81593e-06
-9.35111e-06
-8.86947e-06
-8.44724e-06
-1.53309e-05
-1.52405e-05
-1.51399e-05
-1.50401e-05
-1.49393e-05
-1.48354e-05
-1.47277e-05
-1.46159e-05
-1.44993e-05
-1.4377e-05
-1.4248e-05
-1.41111e-05
-1.39646e-05
-1.38067e-05
-1.36352e-05
-1.34477e-05
-1.32415e-05
-1.3014e-05
-1.27625e-05
-1.24846e-05
-1.21787e-05
-1.18435e-05
-1.14789e-05
-1.10859e-05
-1.06667e-05
-1.02244e-05
-9.76264e-06
-9.28736e-06
-8.79938e-06
-8.36422e-06
-1.5532e-05
-1.5439e-05
-1.53357e-05
-1.52334e-05
-1.51301e-05
-1.50238e-05
-1.49136e-05
-1.47988e-05
-1.46788e-05
-1.45525e-05
-1.44186e-05
-1.42757e-05
-1.4122e-05
-1.39553e-05
-1.37734e-05
-1.35737e-05
-1.33535e-05
-1.31101e-05
-1.28412e-05
-1.25446e-05
-1.22191e-05
-1.1864e-05
-1.14798e-05
-1.10682e-05
-1.06319e-05
-1.01746e-05
-9.70054e-06
-9.21598e-06
-8.7212e-06
-8.2746e-06
-1.57233e-05
-1.56279e-05
-1.55221e-05
-1.54175e-05
-1.5312e-05
-1.52034e-05
-1.50907e-05
-1.49731e-05
-1.48496e-05
-1.47191e-05
-1.45802e-05
-1.4431e-05
-1.42695e-05
-1.40936e-05
-1.39007e-05
-1.36882e-05
-1.34534e-05
-1.31937e-05
-1.2907e-05
-1.25915e-05
-1.22463e-05
-1.18715e-05
-1.14682e-05
-1.10386e-05
-1.0586e-05
-1.01147e-05
-9.62932e-06
-9.13663e-06
-8.63335e-06
-8.17933e-06
-1.59032e-05
-1.58055e-05
-1.56975e-05
-1.55908e-05
-1.54834e-05
-1.53726e-05
-1.52575e-05
-1.51371e-05
-1.50102e-05
-1.48754e-05
-1.47311e-05
-1.45753e-05
-1.44058e-05
-1.42202e-05
-1.40158e-05
-1.379e-05
-1.354e-05
-1.32636e-05
-1.29587e-05
-1.26241e-05
-1.22594e-05
-1.18652e-05
-1.14433e-05
-1.09964e-05
-1.05285e-05
-1.00441e-05
-9.54863e-06
-9.04847e-06
-8.53721e-06
-8.07741e-06
-1.60701e-05
-1.59704e-05
-1.58603e-05
-1.57519e-05
-1.56426e-05
-1.55299e-05
-1.54125e-05
-1.52893e-05
-1.51589e-05
-1.50197e-05
-1.48699e-05
-1.47072e-05
-1.45292e-05
-1.43335e-05
-1.41171e-05
-1.38775e-05
-1.3612e-05
-1.33184e-05
-1.29952e-05
-1.26416e-05
-1.22576e-05
-1.18444e-05
-1.14045e-05
-1.09413e-05
-1.0459e-05
-9.96266e-06
-9.45822e-06
-8.95018e-06
-8.43373e-06
-7.96771e-06
-1.62222e-05
-1.61208e-05
-1.6009e-05
-1.5899e-05
-1.57881e-05
-1.56737e-05
-1.55541e-05
-1.54281e-05
-1.52942e-05
-1.51505e-05
-1.49949e-05
-1.4825e-05
-1.46383e-05
-1.44319e-05
-1.42032e-05
-1.39493e-05
-1.36679e-05
-1.3357e-05
-1.30155e-05
-1.26429e-05
-1.224e-05
-1.18085e-05
-1.13514e-05
-1.08727e-05
-1.0377e-05
-9.87e-06
-9.35766e-06
-8.84051e-06
-8.3222e-06
-7.8506e-06
-1.63579e-05
-1.62551e-05
-1.61419e-05
-1.60305e-05
-1.59183e-05
-1.58022e-05
-1.56806e-05
-1.5552e-05
-1.54145e-05
-1.52662e-05
-1.51046e-05
-1.49273e-05
-1.47314e-05
-1.45141e-05
-1.42725e-05
-1.40041e-05
-1.37066e-05
-1.33783e-05
-1.30185e-05
-1.26272e-05
-1.22058e-05
-1.17567e-05
-1.12833e-05
-1.07901e-05
-1.02822e-05
-9.76575e-06
-9.24552e-06
-8.72105e-06
-8.20217e-06
-7.72518e-06
-1.64755e-05
-1.63716e-05
-1.62572e-05
-1.61448e-05
-1.60315e-05
-1.5914e-05
-1.57905e-05
-1.56592e-05
-1.55182e-05
-1.53651e-05
-1.51974e-05
-1.50123e-05
-1.4807e-05
-1.45784e-05
-1.43237e-05
-1.40405e-05
-1.37268e-05
-1.33811e-05
-1.30032e-05
-1.25937e-05
-1.21545e-05
-1.16885e-05
-1.11998e-05
-1.06932e-05
-1.01744e-05
-9.64956e-06
-9.12072e-06
-8.59253e-06
-8.07299e-06
-7.59106e-06
-1.65733e-05
-1.64685e-05
-1.63533e-05
-1.62402e-05
-1.6126e-05
-1.60073e-05
-1.5882e-05
-1.57482e-05
-1.56036e-05
-1.54456e-05
-1.52716e-05
-1.50786e-05
-1.48636e-05
-1.46234e-05
-1.43555e-05
-1.40574e-05
-1.37273e-05
-1.33644e-05
-1.29687e-05
-1.25416e-05
-1.20852e-05
-1.16034e-05
-1.11004e-05
-1.05816e-05
-1.00531e-05
-9.5206e-06
-8.98408e-06
-8.4542e-06
-7.9342e-06
-7.44798e-06
-1.66496e-05
-1.65444e-05
-1.64287e-05
-1.63151e-05
-1.62003e-05
-1.60806e-05
-1.59537e-05
-1.58173e-05
-1.56691e-05
-1.55063e-05
-1.53258e-05
-1.51247e-05
-1.48997e-05
-1.46478e-05
-1.43664e-05
-1.40534e-05
-1.37071e-05
-1.33273e-05
-1.29143e-05
-1.24701e-05
-1.19976e-05
-1.15008e-05
-1.09847e-05
-1.04551e-05
-9.91813e-06
-9.37791e-06
-8.83658e-06
-8.3053e-06
-7.7854e-06
-7.2957e-06
-1.67028e-05
-1.65974e-05
-1.64817e-05
-1.63679e-05
-1.62528e-05
-1.61323e-05
-1.60038e-05
-1.5865e-05
-1.57132e-05
-1.55454e-05
-1.53584e-05
-1.51489e-05
-1.49139e-05
-1.46502e-05
-1.43554e-05
-1.40274e-05
-1.36652e-05
-1.32688e-05
-1.28392e-05
-1.23787e-05
-1.18909e-05
-1.13804e-05
-1.08525e-05
-1.03133e-05
-9.769e-06
-9.22125e-06
-8.67775e-06
-8.14579e-06
-7.62661e-06
-7.13405e-06
-1.67314e-05
-1.66261e-05
-1.65106e-05
-1.63971e-05
-1.62818e-05
-1.61607e-05
-1.60309e-05
-1.58897e-05
-1.57343e-05
-1.55615e-05
-1.53679e-05
-1.51501e-05
-1.49049e-05
-1.46293e-05
-1.43211e-05
-1.39784e-05
-1.36006e-05
-1.31882e-05
-1.27426e-05
-1.22668e-05
-1.17649e-05
-1.12418e-05
-1.07034e-05
-1.0156e-05
-9.60484e-06
-9.05174e-06
-8.50725e-06
-7.97514e-06
-7.45759e-06
-6.96288e-06
-1.67337e-05
-1.6629e-05
-1.6514e-05
-1.6401e-05
-1.62859e-05
-1.61644e-05
-1.60334e-05
-1.589e-05
-1.57311e-05
-1.55532e-05
-1.53529e-05
-1.51267e-05
-1.48713e-05
-1.4584e-05
-1.42625e-05
-1.39055e-05
-1.35126e-05
-1.30847e-05
-1.26241e-05
-1.2134e-05
-1.16191e-05
-1.10848e-05
-1.05372e-05
-9.98282e-06
-9.42522e-06
-8.86948e-06
-8.32474e-06
-7.79329e-06
-7.27824e-06
-6.78205e-06
-4.99819e-06
-4.4916e-06
-3.95317e-06
-3.38754e-06
-2.80869e-06
-2.22979e-06
-1.66524e-06
-1.12906e-06
-6.3379e-07
-1.89944e-07
1.93848e-07
5.12232e-07
7.63517e-07
9.49358e-07
1.07442e-06
1.14571e-06
1.17179e-06
1.16184e-06
1.12486e-06
1.06902e-06
1.00128e-06
9.27167e-07
8.50872e-07
7.75367e-07
7.02637e-07
6.33907e-07
5.69844e-07
5.10724e-07
4.56565e-07
4.07221e-07
3.62453e-07
3.21971e-07
2.85463e-07
2.52616e-07
2.23123e-07
1.96691e-07
1.7304e-07
1.51913e-07
1.33069e-07
1.16285e-07
1.0136e-07
8.81077e-08
7.63622e-08
6.59692e-08
5.67923e-08
4.87045e-08
4.15928e-08
3.53562e-08
2.98924e-08
2.51361e-08
2.09671e-08
1.73931e-08
1.42055e-08
1.15859e-08
9.06582e-09
7.25132e-09
5.04741e-09
3.97563e-09
1.69553e-09
2.10991e-09
-5.03189e-06
-4.52226e-06
-3.98364e-06
-3.41687e-06
-2.83687e-06
-2.25648e-06
-1.69021e-06
-1.15213e-06
-6.54813e-07
-2.08842e-07
1.77097e-07
4.97606e-07
7.50935e-07
9.38693e-07
1.0655e-06
1.13836e-06
1.1658e-06
1.15702e-06
1.12102e-06
1.06599e-06
9.98897e-07
9.25311e-07
8.49431e-07
7.74252e-07
7.01775e-07
6.33241e-07
5.69328e-07
5.10325e-07
4.56255e-07
4.06981e-07
3.62267e-07
3.21826e-07
2.8535e-07
2.52529e-07
2.23055e-07
1.96637e-07
1.72999e-07
1.51881e-07
1.33043e-07
1.16265e-07
1.01344e-07
8.8095e-08
7.63524e-08
6.59611e-08
5.67859e-08
4.86991e-08
4.15881e-08
3.53527e-08
2.98893e-08
2.51332e-08
2.09648e-08
1.73913e-08
1.42038e-08
1.15845e-08
9.06452e-09
7.25019e-09
5.04712e-09
3.97449e-09
1.69585e-09
2.10895e-09
-5.09859e-06
-4.58277e-06
-4.04389e-06
-3.47488e-06
-2.89267e-06
-2.30938e-06
-1.73976e-06
-1.19795e-06
-6.96606e-07
-2.46441e-07
1.43744e-07
4.68462e-07
7.25848e-07
9.17413e-07
1.04771e-06
1.12368e-06
1.15384e-06
1.14738e-06
1.11333e-06
1.05992e-06
9.94137e-07
9.216e-07
8.46551e-07
7.72022e-07
7.00051e-07
6.31908e-07
5.68297e-07
5.09526e-07
4.55636e-07
4.065e-07
3.61893e-07
3.21535e-07
2.85124e-07
2.52352e-07
2.22918e-07
1.9653e-07
1.72915e-07
1.51815e-07
1.32992e-07
1.16224e-07
1.01312e-07
8.80692e-08
7.63316e-08
6.59443e-08
5.67722e-08
4.86879e-08
4.15786e-08
3.53447e-08
2.98822e-08
2.51275e-08
2.09598e-08
1.73871e-08
1.42004e-08
1.15815e-08
9.06223e-09
7.24801e-09
5.04629e-09
3.97211e-09
1.69669e-09
2.10681e-09
-5.19681e-06
-4.67132e-06
-4.13256e-06
-3.56025e-06
-2.97484e-06
-2.38744e-06
-1.81298e-06
-1.26576e-06
-7.58541e-07
-3.02237e-07
9.41852e-08
4.25105e-07
6.88484e-07
8.85687e-07
1.02115e-06
1.10175e-06
1.13596e-06
1.13297e-06
1.10184e-06
1.05083e-06
9.87006e-07
9.16038e-07
8.42232e-07
7.68677e-07
6.97464e-07
6.29908e-07
5.66749e-07
5.08327e-07
4.54706e-07
4.05778e-07
3.61331e-07
3.21098e-07
2.84784e-07
2.52088e-07
2.22712e-07
1.9637e-07
1.72789e-07
1.51717e-07
1.32914e-07
1.16163e-07
1.01263e-07
8.80303e-08
7.63003e-08
6.59188e-08
5.67513e-08
4.86708e-08
4.15641e-08
3.53326e-08
2.98716e-08
2.51188e-08
2.09523e-08
1.73808e-08
1.4195e-08
1.15769e-08
9.05871e-09
7.24466e-09
5.04502e-09
3.96854e-09
1.69793e-09
2.1035e-09
-5.32495e-06
-4.78481e-06
-4.24774e-06
-3.67133e-06
-3.08175e-06
-2.48919e-06
-1.90862e-06
-1.35448e-06
-8.39727e-07
-3.75511e-07
2.89908e-08
3.67975e-07
6.39172e-07
8.43754e-07
9.86004e-07
1.07269e-06
1.11224e-06
1.11383e-06
1.08656e-06
1.03874e-06
9.77517e-07
9.08633e-07
8.36479e-07
7.6422e-07
6.94016e-07
6.27241e-07
5.64685e-07
5.06728e-07
4.53466e-07
4.04815e-07
3.60583e-07
3.20516e-07
2.84331e-07
2.51735e-07
2.22437e-07
1.96155e-07
1.72622e-07
1.51585e-07
1.32811e-07
1.16081e-07
1.01198e-07
8.79783e-08
7.62584e-08
6.58848e-08
5.67234e-08
4.86478e-08
4.15448e-08
3.53163e-08
2.98576e-08
2.51071e-08
2.09422e-08
1.73723e-08
1.41879e-08
1.15708e-08
9.05396e-09
7.24014e-09
5.04331e-09
3.9638e-09
1.69955e-09
2.09904e-09
-5.4822e-06
-4.91909e-06
-4.38673e-06
-3.80605e-06
-3.21136e-06
-2.6128e-06
-2.02506e-06
-1.46275e-06
-9.39032e-07
-4.65344e-07
-5.11085e-08
2.97637e-07
5.7834e-07
7.91928e-07
9.4249e-07
1.03666e-06
1.08279e-06
1.09004e-06
1.06755e-06
1.02369e-06
9.65685e-07
8.99393e-07
8.29295e-07
7.58652e-07
6.89706e-07
6.23906e-07
5.62104e-07
5.04728e-07
4.51914e-07
4.0361e-07
3.59647e-07
3.19788e-07
2.83764e-07
2.51293e-07
2.22093e-07
1.95886e-07
1.72412e-07
1.5142e-07
1.32681e-07
1.15979e-07
1.01117e-07
8.79133e-08
7.6206e-08
6.58422e-08
5.66885e-08
4.86189e-08
4.15205e-08
3.52959e-08
2.984e-08
2.50923e-08
2.09295e-08
1.73615e-08
1.41788e-08
1.15631e-08
9.04799e-09
7.23445e-09
5.04112e-09
3.95794e-09
1.70151e-09
2.09342e-09
-5.66822e-06
-5.07274e-06
-4.54495e-06
-3.96144e-06
-3.36128e-06
-2.75612e-06
-2.16045e-06
-1.58897e-06
-1.05512e-06
-5.7065e-07
-1.45243e-07
2.1477e-07
5.06502e-07
7.30589e-07
8.90881e-07
9.93841e-07
1.04773e-06
1.06168e-06
1.04485e-06
1.00569e-06
9.51531e-07
8.88329e-07
8.20687e-07
7.51975e-07
6.84535e-07
6.19904e-07
5.59005e-07
5.02327e-07
4.50052e-07
4.02164e-07
3.58522e-07
3.18913e-07
2.83083e-07
2.50763e-07
2.2168e-07
1.95564e-07
1.7216e-07
1.51223e-07
1.32526e-07
1.15856e-07
1.01019e-07
8.78353e-08
7.6143e-08
6.5791e-08
5.66465e-08
4.85842e-08
4.14914e-08
3.52713e-08
2.9819e-08
2.50745e-08
2.09143e-08
1.73486e-08
1.41679e-08
1.15538e-08
9.0408e-09
7.2276e-09
5.03846e-09
3.95098e-09
1.70378e-09
2.08667e-09
-5.87283e-06
-5.24935e-06
-4.71973e-06
-4.13431e-06
-3.52879e-06
-2.91677e-06
-2.3127e-06
-1.73135e-06
-1.18649e-06
-6.90204e-07
-2.52426e-07
1.20146e-07
4.24245e-07
6.6017e-07
8.3149e-07
9.44458e-07
1.00721e-06
1.02885e-06
1.01853e-06
9.84796e-07
9.35077e-07
8.75454e-07
8.10661e-07
7.44192e-07
6.78504e-07
6.15233e-07
5.55388e-07
4.99523e-07
4.47877e-07
4.00475e-07
3.5721e-07
3.17892e-07
2.82289e-07
2.50145e-07
2.21198e-07
1.95188e-07
1.71866e-07
1.50993e-07
1.32345e-07
1.15713e-07
1.00906e-07
8.77443e-08
7.60697e-08
6.57313e-08
5.65975e-08
4.85436e-08
4.14574e-08
3.52427e-08
2.97945e-08
2.50537e-08
2.08966e-08
1.73335e-08
1.41552e-08
1.1543e-08
9.03238e-09
7.21957e-09
5.0353e-09
3.94299e-09
1.70632e-09
2.07878e-09
-6.06489e-06
-5.44079e-06
-4.90836e-06
-4.32143e-06
-3.71096e-06
-3.09216e-06
-2.47954e-06
-1.88796e-06
-1.33152e-06
-8.2266e-07
-3.71576e-07