/*--------------------------------*- C++ -*----------------------------------*\
| =========                 |                                                 |
| \\      /  F ield         | foam-extend: Open Source CFD                    |
|  \\    /   O peration     | Version:     4.0                                |
|   \\  /    A nd           | Web:         http://www.foam-extend.org         |
|    \\/     M anipulation  |                                                 |
\*---------------------------------------------------------------------------*/
FoamFile
{
    version     2.0;
    format      ascii;
    class       surfaceScalarField;
    location    "35";
    object      phi;
}
// * * * * * * * * * * * * * * * * * * * * * * * * * * * * * * * * * * * * * //

dimensions      [0 3 -1 0 0 0 0];

internalField   nonuniform List<scalar> 
71520
(
-2.87682e-10
2.85858e-10
1.82309e-12
-1.15222e-09
8.59065e-10
5.47587e-12
-2.62827e-09
1.46671e-09
9.33915e-12
-4.74838e-09
2.10672e-09
1.33907e-11
-7.54227e-09
2.77629e-09
1.7601e-11
-1.1036e-08
3.47177e-09
2.19332e-11
-1.5251e-08
4.18867e-09
2.63422e-11
-2.02033e-08
4.9215e-09
3.0774e-11
-2.59021e-08
5.66364e-09
3.51654e-11
-3.23487e-08
6.40723e-09
3.94422e-11
-3.95351e-08
7.14289e-09
4.35197e-11
-4.7442e-08
7.85956e-09
4.73005e-11
-5.60369e-08
8.5442e-09
5.06746e-11
-6.5272e-08
9.18157e-09
5.35181e-11
-7.50814e-08
9.75377e-09
5.56924e-11
-8.53783e-08
1.02398e-08
5.70427e-11
-9.60507e-08
1.0615e-08
5.73968e-11
-1.06958e-07
1.08507e-08
5.65639e-11
-1.17925e-07
1.0913e-08
5.43335e-11
-1.28738e-07
1.07626e-08
5.04744e-11
-1.39137e-07
1.03538e-08
4.47354e-11
-1.48807e-07
9.63374e-09
3.68475e-11
-1.57376e-07
8.54229e-09
2.65253e-11
-1.64401e-07
7.01185e-09
1.34558e-11
-1.69381e-07
4.98245e-09
-2.76286e-12
-1.71735e-07
2.37601e-09
-2.19936e-11
-1.70769e-07
-9.21454e-10
-4.49633e-11
-1.65715e-07
-4.98178e-09
-7.17434e-11
-1.5573e-07
-9.88263e-09
-1.02421e-10
-1.57269e-08
-1.39866e-07
-1.37093e-10
-2.83673e-10
5.69532e-10
-1.13635e-09
1.71174e-09
-2.59236e-09
2.92272e-09
-4.68397e-09
4.19833e-09
-7.44058e-09
5.5329e-09
-1.0888e-08
6.91914e-09
-1.50473e-08
8.348e-09
-1.99342e-08
9.80842e-09
-2.55577e-08
1.12871e-08
-3.19187e-08
1.27682e-08
-3.90086e-08
1.42328e-08
-4.68077e-08
1.56587e-08
-5.52831e-08
1.70196e-08
-6.43863e-08
1.82848e-08
-7.40508e-08
1.94183e-08
-8.41888e-08
2.03778e-08
-9.46875e-08
2.11138e-08
-1.05405e-07
2.15684e-08
-1.16166e-07
2.16739e-08
-1.26755e-07
2.13511e-08
-1.36909e-07
2.05084e-08
-1.46316e-07
1.90401e-08
-1.546e-07
1.68261e-08
-1.6132e-07
1.3732e-08
-1.65967e-07
9.63004e-09
-1.67951e-07
4.35989e-09
-1.66593e-07
-2.27988e-09
-1.61123e-07
-1.04511e-08
-1.507e-07
-2.03056e-08
-3.20537e-08
-1.34374e-07
-2.75753e-10
8.45285e-10
-1.10495e-09
2.54094e-09
-2.5213e-09
4.33907e-09
-4.55646e-09
6.23349e-09
-7.23923e-09
8.21568e-09
-1.05948e-08
1.02747e-08
-1.46437e-08
1.23969e-08
-1.94011e-08
1.45658e-08
-2.48751e-08
1.67611e-08
-3.1066e-08
1.89591e-08
-3.79644e-08
2.11313e-08
-4.55497e-08
2.32439e-08
-5.37877e-08
2.52576e-08
-6.26289e-08
2.7126e-08
-7.20053e-08
2.87947e-08
-8.18275e-08
3.02e-08
-9.19811e-08
3.12674e-08
-1.02322e-07
3.19095e-08
-1.12673e-07
3.20246e-08
-1.22815e-07
3.14935e-08
-1.32485e-07
3.01785e-08
-1.41367e-07
2.79213e-08
-1.49082e-07
2.45418e-08
-1.55191e-07
1.9841e-08
-1.59178e-07
1.3617e-08
-1.60443e-07
5.62474e-09
-1.58312e-07
-4.41098e-09
-1.52021e-07
-1.67426e-08
-1.40731e-07
-3.15948e-08
-4.92953e-08
-1.2349e-07
-2.64127e-10
1.10941e-09
-1.05884e-09
3.33565e-09
-2.41688e-09
5.69711e-09
-4.36897e-09
8.18558e-09
-6.94303e-09
1.07897e-08
-1.01633e-08
1.3495e-08
-1.40495e-08
1.62831e-08
-1.86157e-08
1.91319e-08
-2.38691e-08
2.20146e-08
-2.98088e-08
2.48988e-08
-3.64242e-08
2.77466e-08
-4.36932e-08
3.05129e-08
-5.15802e-08
3.31446e-08
-6.00337e-08
3.55795e-08
-6.89837e-08
3.77447e-08
-7.83386e-08
3.95548e-08
-8.79811e-08
4.09099e-08
-9.77645e-08
4.1693e-08
-1.07508e-07
4.17677e-08
-1.16989e-07
4.09751e-08
-1.25942e-07
3.91311e-08
-1.34045e-07
3.60246e-08
-1.4092e-07
3.14163e-08
-1.46122e-07
2.50439e-08
-1.49131e-07
1.66252e-08
-1.49341e-07
5.8348e-09
-1.46077e-07
-7.67444e-09
-1.38579e-07
-2.42406e-08
-1.26017e-07
-4.41572e-08
-6.7882e-08
-1.0743e-07
-2.49092e-10
1.3585e-09
-9.99162e-10
4.08572e-09
-2.28166e-09
6.97961e-09
-4.12603e-09
1.00299e-08
-6.55895e-09
1.32227e-08
-9.60345e-09
1.65395e-08
-1.3278e-08
1.99577e-08
-1.75953e-08
2.34493e-08
-2.25613e-08
2.69805e-08
-2.81735e-08
3.0511e-08
-3.44196e-08
3.39928e-08
-4.12757e-08
3.7369e-08
-4.8704e-08
4.05729e-08
-5.66508e-08
4.35262e-08
-6.50431e-08
4.61371e-08
-7.37863e-08
4.8298e-08
-8.27599e-08
4.98834e-08
-9.18132e-08
5.07464e-08
-1.00761e-07
5.07155e-08
-1.09378e-07
4.95916e-08
-1.17391e-07
4.71443e-08
-1.24476e-07
4.31102e-08
-1.30252e-07
3.71918e-08
-1.34269e-07
2.90608e-08
-1.35999e-07
1.83551e-08
-1.34836e-07
4.67207e-09
-1.30104e-07
-1.24066e-08
-1.21043e-07
-3.33011e-08
-1.06834e-07
-5.8367e-08
-8.8219e-08
-8.64967e-08
-2.31025e-10
1.58953e-09
-9.27376e-10
4.78207e-09
-2.11886e-09
8.17109e-09
-3.83332e-09
1.17444e-08
-6.09584e-09
1.54852e-08
-8.92788e-09
1.93715e-08
-1.23463e-08
2.3376e-08
-1.63621e-08
2.74651e-08
-2.09794e-08
3.15979e-08
-2.6194e-08
3.57256e-08
-3.19914e-08
3.97901e-08
-3.83452e-08
4.37228e-08
-4.52151e-08
4.74429e-08
-5.25444e-08
5.08554e-08
-6.02569e-08
5.38495e-08
-6.82541e-08
5.62952e-08
-7.64113e-08
5.80407e-08
-8.45735e-08
5.89086e-08
-9.25503e-08
5.86924e-08
-1.00111e-07
5.71522e-08
-1.06978e-07
5.40117e-08
-1.12824e-07
4.89555e-08
-1.1726e-07
4.16278e-08
-1.19831e-07
3.16319e-08
-1.20006e-07
1.85304e-08
-1.17178e-07
1.84344e-09
-1.10669e-07
-1.89155e-08
-9.9724e-08
-4.42457e-08
-8.35385e-08
-7.45525e-08
-1.10686e-07
-6.10712e-08
-2.10367e-10
1.7999e-09
-8.45201e-10
5.4169e-09
-1.93232e-09
9.25821e-09
-3.4976e-09
1.33097e-08
-5.56419e-09
1.75518e-08
-8.15156e-09
2.19589e-08
-1.12746e-08
2.64991e-08
-1.49423e-08
3.11328e-08
-1.91566e-08
3.58122e-08
-2.39108e-08
4.04798e-08
-2.91879e-08
4.50673e-08
-3.49589e-08
4.94938e-08
-4.11802e-08
5.36642e-08
-4.77915e-08
5.74667e-08
-5.47128e-08
6.07709e-08
-6.18413e-08
6.34237e-08
-6.90475e-08
6.52469e-08
-7.61711e-08
6.60322e-08
-8.30162e-08
6.55375e-08
-8.93462e-08
6.34822e-08
-9.48791e-08
5.95446e-08
-9.92804e-08
5.33569e-08
-1.02156e-07
4.45038e-08
-1.03046e-07
3.25219e-08
-1.01417e-07
1.69006e-08
-9.66617e-08
-2.91148e-09
-8.80995e-08
-2.74777e-08
-7.49851e-08
-5.73601e-08
-5.65597e-08
-9.29779e-08
-1.35574e-07
-3.16718e-08
-1.87614e-10
1.98751e-09
-7.54558e-10
5.98385e-09
-1.72631e-09
1.023e-08
-3.12643e-09
1.47098e-08
-4.97572e-09
1.9401e-08
-7.29132e-09
2.42745e-08
-1.00857e-08
2.92934e-08
-1.33654e-08
3.44125e-08
-1.71298e-08
3.95765e-08
-2.13693e-08
4.47193e-08
-2.6064e-08
4.9762e-08
-3.11815e-08
5.46113e-08
-3.66747e-08
5.91573e-08
-4.24792e-08
6.32712e-08
-4.85105e-08
6.68022e-08
-5.46611e-08
6.95743e-08
-6.0796e-08
7.13818e-08
-6.67491e-08
7.19852e-08
-7.23185e-08
7.11069e-08
-7.72621e-08
6.84258e-08
-8.12914e-08
6.3574e-08
-8.40658e-08
5.61313e-08
-8.51856e-08
4.56236e-08
-8.41858e-08
3.15221e-08
-8.05317e-08
1.32465e-08
-7.36185e-08
-9.82468e-09
-6.27666e-08
-3.83296e-08
-4.72241e-08
-7.29025e-08
-2.6289e-08
-1.13913e-07
-1.62482e-07
6.1897e-10
-1.63292e-10
2.1508e-09
-6.57501e-10
6.47806e-09
-1.50542e-09
1.10779e-08
-2.7279e-09
1.59323e-08
-4.34304e-09
2.10162e-08
-6.36522e-09
2.62967e-08
-8.80409e-09
3.17323e-08
-1.16633e-08
3.72717e-08
-1.49391e-08
4.28523e-08
-1.86188e-08
4.8399e-08
-2.26789e-08
5.38222e-08
-2.70833e-08
5.90157e-08
-3.17807e-08
6.38547e-08
-3.67022e-08
6.81928e-08
-4.17586e-08
7.18586e-08
-4.68367e-08
7.46523e-08
-5.17958e-08
7.63408e-08
-5.64637e-08
7.66532e-08
-6.06324e-08
7.52756e-08
-6.40531e-08
7.18466e-08
-6.64308e-08
6.59517e-08
-6.74186e-08
5.7119e-08
-6.66115e-08
4.48166e-08
-6.35418e-08
2.84524e-08
-5.76739e-08
7.37858e-09
-4.84055e-08
-1.90931e-08
-3.50668e-08
-5.16682e-08
-1.69116e-08
-9.10577e-08
7.01865e-09
-1.37843e-07
-1.92499e-07
3.70356e-08
-1.37942e-10
2.28874e-09
-5.56141e-10
6.89626e-09
-1.27436e-09
1.17961e-08
-2.31037e-09
1.69683e-08
-3.67915e-09
2.2385e-08
-5.39194e-09
2.80095e-08
-7.45513e-09
3.37955e-08
-9.86901e-09
3.96856e-08
-1.26263e-08
4.56097e-08
-1.57107e-08
5.14834e-08
-1.90946e-08
5.72061e-08
-2.27377e-08
6.26588e-08
-2.65842e-08
6.77012e-08
-3.05603e-08
7.21689e-08
-3.45713e-08
7.58696e-08
-3.84981e-08
7.85792e-08
-4.2194e-08
8.00368e-08
-4.54804e-08
7.99396e-08
-4.81423e-08
7.79375e-08
-4.99242e-08
7.36284e-08
-5.05245e-08
6.65519e-08
-4.95904e-08
5.61849e-08
-4.67131e-08
4.19392e-08
-4.14224e-08
2.31617e-08
-3.31839e-08
-8.59916e-10
-2.13989e-08
-3.08782e-08
-5.40299e-09
-6.76642e-08
1.55075e-08
-1.11968e-07
4.21506e-08
-1.64486e-07
-2.25699e-07
7.53502e-08
-1.12101e-10
2.40084e-09
-4.52572e-10
7.23673e-09
-1.03781e-09
1.23813e-08
-1.88215e-09
1.78126e-08
-2.99707e-09
2.34999e-08
-4.39021e-09
2.94026e-08
-6.06429e-09
3.54696e-08
-8.01578e-09
4.16371e-08
-1.02335e-08
4.78273e-08
-1.26967e-08
5.39466e-08
-1.53737e-08
5.98831e-08
-1.82194e-08
6.55045e-08
-2.1173e-08
7.06547e-08
-2.41551e-08
7.5151e-08
-2.70653e-08
7.87798e-08
-2.97786e-08
8.12924e-08
-3.21412e-08
8.23994e-08
-3.39676e-08
8.1766e-08
-3.50362e-08
7.90061e-08
-3.50846e-08
7.36769e-08
-3.3805e-08
6.52724e-08
-3.08394e-08
5.32193e-08
-2.57753e-08
3.68751e-08
-1.81416e-08
1.5528e-08
-7.40764e-09
-1.15939e-08
7.01972e-09
-4.53055e-08
2.57934e-08
-8.64379e-08
4.96271e-08
-1.35802e-07
7.9237e-08
-1.94096e-07
-2.61961e-07
1.15499e-07
-8.62754e-11
2.48712e-09
-3.48789e-10
7.49924e-09
-8.00257e-10
1.28328e-08
-1.45124e-09
1.84636e-08
-2.30931e-09
2.4358e-08
-3.37813e-09
3.04714e-08
-4.65628e-09
3.67477e-08
-6.13598e-09
4.31168e-08
-7.80157e-09
4.94929e-08
-9.62779e-09
5.57729e-08
-1.1578e-08
6.18333e-08
-1.3602e-08
6.75284e-08
-1.56335e-08
7.26862e-08
-1.75872e-08
7.71048e-08
-1.93566e-08
8.05492e-08
-2.08096e-08
8.27454e-08
-2.17855e-08
8.33754e-08
-2.20921e-08
8.20725e-08
-2.15009e-08
7.84149e-08
-1.97429e-08
7.19189e-08
-1.65043e-08
6.20337e-08
-1.14224e-08
4.81374e-08
-4.08219e-09
2.95349e-08
5.98677e-09
5.45904e-09
1.93104e-08
-2.49175e-08
3.6472e-08
-6.24671e-08
5.81108e-08
-1.08077e-07
8.49164e-08
-1.62607e-07
1.17596e-07
-2.26776e-07
-3.0133e-07
1.56965e-07
-6.0921e-11
2.54804e-09
-2.46595e-10
7.68492e-09
-5.65789e-10
1.3152e-08
-1.02497e-09
1.89228e-08
-1.62749e-09
2.49605e-08
-2.37258e-09
3.12165e-08
-3.25426e-09
3.76294e-08
-4.26005e-09
4.41226e-08
-5.36941e-09
5.06023e-08
-6.55205e-09
5.69555e-08
-7.76612e-09
6.30474e-08
-8.95582e-09
6.87181e-08
-1.00485e-08
7.37789e-08
-1.09529e-08
7.80091e-08
-1.15552e-08
8.11515e-08
-1.17163e-08
8.29065e-08
-1.12691e-08
8.29283e-08
-1.00145e-08
8.08179e-08
-7.71689e-09
7.61172e-08
-4.10064e-09
6.83026e-08
1.15354e-09
5.67795e-08
8.4123e-09
4.08787e-08
1.8092e-08
1.98553e-08
3.06603e-08
-7.10925e-09
4.66369e-08
-4.08941e-08
6.65936e-08
-8.24238e-08
9.11506e-08
-1.32634e-07
1.20972e-07
-1.92429e-07
1.56742e-07
-2.62546e-07
-3.43812e-07
1.99224e-07
-3.64153e-11
2.58446e-09
-1.47513e-10
7.79601e-09
-3.37899e-10
1.33424e-08
-6.09709e-10
1.91946e-08
-9.61763e-10
2.53125e-08
-1.38856e-09
3.16433e-08
-1.87909e-09
3.81199e-08
-2.4156e-09
4.46591e-08
-2.97228e-09
5.1159e-08
-3.51377e-09
5.7497e-08
-3.99236e-09
6.3526e-08
-4.34546e-09
6.90713e-08
-4.49395e-09
7.39274e-08
-4.33955e-09
7.78548e-08
-3.76169e-09
8.05736e-08
-2.61499e-09
8.17598e-08
-7.25194e-10
8.10385e-08
2.11449e-09
7.79783e-08
6.14653e-09
7.20852e-08
1.16527e-08
6.27964e-08
1.89574e-08
4.94749e-08
2.84301e-08
3.1406e-08
4.04879e-08
7.79743e-09
5.55948e-08
-2.22161e-08
7.4262e-08
-5.95613e-08
9.70462e-08
-1.05208e-07
1.24545e-07
-1.60132e-07
1.57391e-07
-2.25275e-07
1.96234e-07
-3.01389e-07
-3.89368e-07
2.4179e-07
-1.30569e-11
2.59751e-09
-5.27958e-11
7.83575e-09
-1.19467e-10
1.34091e-08
-2.10627e-10
1.92858e-08
-3.20324e-10
2.54222e-08
-4.38117e-10
3.17611e-08
-5.47888e-10
3.82297e-08
-6.26441e-10
4.47376e-08
-6.42028e-10
5.11746e-08
-5.5248e-10
5.74074e-08
-3.03232e-10
6.32767e-08
1.74498e-10
6.85935e-08
9.65949e-10
7.3136e-08
2.1761e-09
7.66446e-08
3.93254e-09
7.88172e-08
6.38843e-09
7.93039e-08
9.72569e-09
7.77012e-08
1.41582e-08
7.35458e-08
1.99352e-08
6.63082e-08
2.73445e-08
5.53871e-08
3.67151e-08
4.01043e-08
4.84189e-08
1.97021e-08
6.28723e-08
-6.65593e-09
8.05339e-08
-3.98778e-08
1.01905e-07
-8.0932e-08
1.27523e-07
-1.30826e-07
1.57958e-07
-1.90568e-07
1.93807e-07
-2.61124e-07
2.35674e-07
-3.43255e-07
-4.3792e-07
2.84225e-07
8.72942e-12
2.58878e-09
3.60204e-11
7.80846e-09
8.61939e-11
1.33589e-08
1.66537e-10
1.92054e-08
2.88101e-10
2.53007e-08
4.66686e-10
3.15825e-08
7.24002e-10
3.79724e-08
1.08902e-09
4.43726e-08
1.59971e-09
5.06639e-08
2.30486e-09
5.67023e-08
3.26556e-09
6.2316e-08
4.55736e-09
6.73017e-08
6.27272e-09
7.14206e-08
8.52429e-09
7.4393e-08
1.14472e-08
7.58943e-08
1.52021e-08
7.55489e-08
1.99786e-08
7.29248e-08
2.59976e-08
6.75267e-08
3.35154e-08
5.87905e-08
4.28252e-08
4.60773e-08
5.42602e-08
2.86693e-08
6.81943e-08
5.76798e-09
8.50413e-08
-2.35029e-08
1.05253e-07
-6.00899e-08
1.29319e-07
-1.04997e-07
1.57754e-07
-1.59261e-07
1.91097e-07
-2.23911e-07
2.299e-07
-2.99927e-07
2.74709e-07
-3.88063e-07
-4.89351e-07
3.2614e-07
2.872e-11
2.56006e-09
1.18043e-10
7.71914e-09
2.77033e-10
1.31999e-08
5.18006e-10
1.89645e-08
8.57352e-10
2.49613e-08
1.31652e-09
3.11234e-08
1.9232e-09
3.73657e-08
2.71267e-09
4.35831e-08
3.72939e-09
4.96472e-08
5.02866e-09
5.5403e-08
6.67853e-09
6.06662e-08
8.76183e-09
6.52184e-08
1.13788e-08
6.88036e-08
1.46499e-08
7.1122e-08
1.8718e-08
7.18261e-08
2.37517e-08
7.05152e-08
2.99482e-08
6.67283e-08
3.75359e-08
5.9939e-08
4.67774e-08
4.9549e-08
5.79716e-08
3.4883e-08
7.14554e-08
1.51856e-08
8.7603e-08
-1.03797e-08
1.06825e-07
-4.27249e-08
1.29566e-07
-8.28307e-08
1.56298e-07
-1.31729e-07
1.87512e-07
-1.90476e-07
2.23709e-07
-2.60108e-07
2.65393e-07
-3.4161e-07
3.13033e-07
-4.35703e-07
-5.4351e-07
3.67192e-07
4.68973e-11
2.51317e-09
1.93057e-10
7.57298e-09
4.52383e-10
1.29406e-08
8.42369e-10
1.85745e-08
1.38492e-09
2.44188e-08
2.10734e-09
3.04009e-08
3.04351e-09
3.64295e-08
4.23522e-09
4.23914e-08
5.7337e-09
4.81487e-08
7.60129e-09
5.35354e-08
9.91335e-09
5.83541e-08
1.27604e-08
6.23714e-08
1.62507e-08
6.53133e-08
2.05128e-08
6.68599e-08
2.56976e-08
6.66413e-08
3.19819e-08
6.42309e-08
3.95705e-08
5.91397e-08
4.86993e-08
5.08102e-08
5.96375e-08
3.86108e-08
7.26892e-08
2.18314e-08
8.8194e-08
-3.19244e-10
1.06526e-07
-2.87114e-08
1.2809e-07
-6.42896e-08
1.53323e-07
-1.08063e-07
1.82676e-07
-1.61083e-07
2.16613e-07
-2.24413e-07
2.5559e-07
-2.99086e-07
3.00055e-07
-3.86075e-07
3.50388e-07
-4.86036e-07
-6.00214e-07
4.07092e-07
6.3224e-11
2.44994e-09
2.60907e-10
7.3753e-09
6.11845e-10
1.25896e-08
1.13879e-09
1.80475e-08
1.8693e-09
2.36883e-08
2.83667e-09
2.94336e-08
4.08117e-09
3.5185e-08
5.65131e-09
4.08213e-08
7.60538e-09
4.61946e-08
1.00131e-08
5.11277e-08
1.29574e-08
5.54098e-08
1.65369e-08
5.87919e-08
2.08683e-08
6.09819e-08
2.60881e-08
6.164e-08
3.2356e-08
6.03735e-08
3.98567e-08
5.67302e-08
4.88033e-08
5.01931e-08
5.9439e-08
4.01745e-08
7.20394e-08
2.60104e-08
8.69132e-08
6.95753e-09
1.04402e-07
-1.78079e-08
1.24878e-07
-4.91872e-08
1.48742e-07
-8.81535e-08
1.76415e-07
-1.35736e-07
2.0833e-07
-1.92997e-07
2.44915e-07
-2.60997e-07
2.86578e-07
-3.40749e-07
3.33698e-07
-4.33195e-07
3.86559e-07
-5.38897e-07
-6.59246e-07
4.45591e-07
7.77416e-11
2.3722e-09
3.21723e-10
7.13131e-09
7.55648e-10
1.21557e-08
1.40758e-09
1.73956e-08
2.31079e-09
2.27851e-08
3.5047e-09
2.82397e-08
5.03611e-09
3.36536e-08
6.96042e-09
3.8897e-08
9.34319e-09
4.38118e-08
1.22617e-08
4.82092e-08
1.5807e-08
5.18645e-08
2.00861e-08
5.45128e-08
2.5224e-08
5.5844e-08
3.1366e-08
5.54981e-08
3.86801e-08
5.30593e-08
4.73599e-08
4.80504e-08
5.76264e-08
3.99266e-08
6.97303e-08
2.80706e-08
8.39531e-08
1.17876e-08
1.00608e-07
-9.697e-09
1.20036e-07
-3.72364e-08
1.42609e-07
-7.176e-08
1.68719e-07
-1.14263e-07
1.98772e-07
-1.65789e-07
2.33174e-07
-2.274e-07
2.72315e-07
-3.00139e-07
3.16549e-07
-3.84982e-07
3.66173e-07
-4.8282e-07
4.2137e-07
-5.94094e-07
-7.20357e-07
4.82481e-07
9.0559e-11
2.28164e-09
3.75903e-10
6.84597e-09
8.84629e-10
1.1647e-08
1.65012e-09
1.66301e-08
2.71141e-09
2.17238e-08
4.11412e-09
2.68369e-08
5.91165e-09
3.18561e-08
8.16649e-09
3.66421e-08
1.09516e-08
4.10267e-08
1.43521e-08
4.48087e-08
1.84674e-08
4.77493e-08
2.3413e-08
4.95672e-08
2.93226e-08
4.99344e-08
3.63503e-08
4.84704e-08
4.46732e-08
4.47364e-08
5.44933e-08
3.82302e-08
6.60399e-08
2.838e-08
7.95709e-08
1.45397e-08
9.53735e-08
-4.01506e-09
1.13763e-07
-2.80868e-08
1.35083e-07
-5.85562e-08
1.59699e-07
-9.63762e-08
1.87994e-07
-1.42558e-07
2.20355e-07
-1.9815e-07
2.57157e-07
-2.64202e-07
2.98746e-07
-3.41728e-07
3.45414e-07
-4.3165e-07
3.97365e-07
-5.34771e-07
4.54677e-07
-6.51405e-07
-7.83262e-07
5.17582e-07
1.01846e-10
2.1798e-09
4.24082e-10
6.52373e-09
1.00016e-09
1.10709e-08
1.86876e-09
1.57615e-08
3.07468e-09
2.05179e-08
4.66978e-09
2.52418e-08
6.71415e-09
2.98117e-08
9.27742e-09
3.40789e-08
1.24401e-08
3.7864e-08
1.62954e-08
4.09533e-08
2.09512e-08
4.30934e-08
2.65317e-08
4.39867e-08
3.31795e-08
4.32867e-08
4.10578e-08
4.05921e-08
5.03527e-08
3.54415e-08
6.1275e-08
2.73079e-08
7.40621e-08
1.55929e-08
8.89789e-08
-3.77158e-10
1.06317e-07
-2.13533e-08
1.26395e-07
-4.81646e-08
1.49555e-07
-8.17159e-08
1.76156e-07
-1.22978e-07
2.06568e-07
-1.7297e-07
2.41154e-07
-2.32736e-07
2.80256e-07
-3.03303e-07
3.24168e-07
-3.8564e-07
3.73109e-07
-4.80591e-07
4.2718e-07
-5.88842e-07
4.86355e-07
-7.1058e-07
-8.47643e-07
5.50736e-07
1.11819e-10
2.06798e-09
4.67085e-10
6.16847e-09
1.10404e-09
1.0434e-08
2.06662e-09
1.47989e-08
3.40537e-09
1.91791e-08
5.17837e-09
2.34688e-08
7.45246e-09
2.75376e-08
1.03044e-08
3.12269e-08
1.38225e-08
3.4346e-08
1.81081e-08
3.66678e-08
2.32776e-08
3.79239e-08
2.94641e-08
3.78002e-08
3.68193e-08
3.59315e-08
4.55156e-08
3.18958e-08
5.57482e-08
2.52089e-08
6.77368e-08
1.53193e-08
8.17266e-08
1.60311e-09
9.79885e-08
-1.6639e-08
1.16818e-07
-4.01833e-08
1.38537e-07
-6.9883e-08
1.63483e-07
-1.06662e-07
1.92007e-07
-1.51502e-07
2.24461e-07
-2.05424e-07
2.61182e-07
-2.69456e-07
3.02468e-07
-3.4459e-07
3.48558e-07
-4.31731e-07
3.99584e-07
-5.31616e-07
4.55539e-07
-6.44798e-07
5.16298e-07
-7.71339e-07
-9.13142e-07
5.81797e-07
1.20731e-10
1.94725e-09
5.05881e-10
5.78332e-09
1.1984e-09
9.74144e-09
2.24742e-09
1.37499e-08
3.70917e-09
1.77174e-08
5.64795e-09
2.153e-08
8.13731e-09
2.50483e-08
1.12612e-08
2.8103e-08
1.51158e-08
3.04914e-08
1.98106e-08
3.19729e-08
2.54707e-08
3.22638e-08
3.2238e-08
3.10329e-08
4.02735e-08
2.7896e-08
4.9759e-08
2.24103e-08
6.08986e-08
1.40693e-08
7.39207e-08
2.29729e-09
8.90775e-08
-1.35537e-08
1.06645e-07
-3.4207e-08
1.26925e-07
-6.04627e-08
1.50236e-07
-9.31938e-08
1.76912e-07
-1.33338e-07
2.07293e-07
-1.81883e-07
2.41707e-07
-2.39839e-07
2.8046e-07
-3.08208e-07
3.23802e-07
-3.87932e-07
3.71903e-07
-4.79832e-07
4.24796e-07
-5.84509e-07
4.82372e-07
-7.02374e-07
5.44402e-07
-8.33369e-07
-9.79353e-07
6.10614e-07
1.28857e-10
1.81839e-09
5.41525e-10
5.37065e-09
1.28557e-09
8.9974e-09
2.41524e-09
1.26202e-08
3.99239e-09
1.61402e-08
6.08747e-09
1.9435e-08
8.7807e-09
2.23551e-08
1.21633e-08
2.47203e-08
1.63391e-08
2.63156e-08
2.14261e-08
2.68859e-08
2.75579e-08
2.61321e-08
3.48853e-08
2.37055e-08
4.35785e-08
1.92028e-08
5.38285e-08
1.21603e-08
6.58486e-08
2.0492e-09
7.98746e-08
-1.17287e-08
9.61657e-08
-2.98447e-08
1.15004e-07
-5.30451e-08
1.36691e-07
-8.21502e-08
1.61546e-07
-1.18049e-07
1.89894e-07
-1.61686e-07
2.22059e-07
-2.14047e-07
2.58344e-07
-2.76125e-07
2.99015e-07
-3.48879e-07
3.44268e-07
-4.33185e-07
3.94189e-07
-5.29752e-07
4.48711e-07
-6.39032e-07
5.07612e-07
-7.61275e-07
5.70568e-07
-8.96325e-07
-1.04581e-06
6.37026e-07
1.36478e-10
1.68191e-09
5.75109e-10
4.93202e-09
1.36797e-09
8.20454e-09
2.57434e-09
1.14138e-08
4.2616e-09
1.4453e-08
6.50629e-09
1.71903e-08
9.39523e-09
1.94661e-08
1.30269e-08
2.10887e-08
1.75129e-08
2.18296e-08
2.29792e-08
2.14195e-08
2.95681e-08
1.95432e-08
3.74395e-08
1.58341e-08
4.67726e-08
9.8697e-09
5.77673e-08
1.16556e-09
7.06451e-08
-1.08286e-08
8.56493e-08
-2.6733e-08
1.03046e-07
-4.7241e-08
1.2312e-07
-7.31193e-08
1.46174e-07
-1.05205e-07
1.72523e-07
-1.44397e-07
2.02481e-07
-1.91644e-07
2.36351e-07
-2.47918e-07
2.74408e-07
-3.14181e-07
3.1687e-07
-3.91341e-07
3.63872e-07
-4.80188e-07
4.15402e-07
-5.81282e-07
4.71296e-07
-6.94927e-07
5.31196e-07
-8.21175e-07
5.94704e-07
-9.59832e-07
-1.11196e-06
6.60849e-07
1.43873e-10
1.53804e-09
6.07709e-10
4.46818e-09
1.448e-09
7.36424e-09
2.72893e-09
1.01329e-08
4.52333e-09
1.26586e-08
6.91372e-09
1.47999e-08
9.99346e-09
1.63864e-08
1.38682e-08
1.7214e-08
1.86571e-08
1.70407e-08
2.44943e-08
1.55823e-08
3.15305e-08
1.2507e-08
3.99344e-08
7.43028e-09
4.9894e-08
-8.98654e-11
6.16175e-08
-1.0558e-08
7.53342e-08
-2.45453e-08
9.12946e-08
-4.26934e-08
1.09769e-07
-6.57157e-08
1.31046e-07
-9.43963e-08
1.55427e-07
-1.29585e-07
1.83216e-07
-1.72187e-07
2.14716e-07
-2.23144e-07
2.50205e-07
-2.83407e-07
2.89922e-07
-3.53898e-07
3.34038e-07
-4.35457e-07
3.82606e-07
-5.28756e-07
4.35524e-07
-6.34199e-07
4.92516e-07
-7.51919e-07
5.53066e-07
-8.81724e-07
6.16711e-07
-1.02348e-06
-1.17709e-06
6.81842e-07
1.51302e-10
1.38674e-09
6.4034e-10
3.97914e-09
1.52791e-09
6.47667e-09
2.883e-09
8.77782e-09
4.78378e-09
1.07578e-08
7.3186e-09
1.22651e-08
1.05873e-08
1.31176e-08
1.47026e-08
1.30987e-08
1.9791e-08
1.19523e-08
2.59947e-08
9.37868e-09
3.34725e-08
5.02915e-09
4.24016e-08
-1.49882e-09
5.29782e-08
-1.06665e-08
6.54184e-08
-2.29982e-08
7.9959e-08
-3.90858e-08
9.68561e-08
-5.95905e-08
1.16384e-07
-8.52435e-08
1.38831e-07
-1.16843e-07
1.64493e-07
-1.55247e-07
1.93666e-07
-2.0136e-07
2.26632e-07
-2.5611e-07
2.63643e-07
-3.20418e-07
3.04897e-07
-3.95152e-07
3.50508e-07
-4.81068e-07
4.00448e-07
-5.78697e-07
4.54528e-07
-6.88279e-07
5.12346e-07
-8.09737e-07
5.73186e-07
-9.42565e-07
6.36441e-07
-1.08673e-06
-1.24038e-06
6.99732e-07
1.58999e-10
1.22774e-09
6.73912e-10
3.46423e-09
1.60973e-09
5.54085e-09
3.04015e-09
7.34741e-09
5.0485e-09
8.74943e-09
7.72892e-09
9.58464e-09
1.11876e-08
9.65894e-09
1.5544e-08
8.74235e-09
2.09318e-08
6.56442e-09
2.7501e-08
2.80948e-09
3.54184e-08
-2.88819e-09
4.48689e-08
-1.09493e-08
5.60564e-08
-2.1854e-08
6.92046e-08
-3.61465e-08
8.45563e-08
-5.44375e-08
1.02372e-07
-7.74062e-08
1.22927e-07
-1.05799e-07
1.46509e-07
-1.40424e-07
1.73404e-07
-1.82143e-07
2.03896e-07
-2.31852e-07
2.38244e-07
-2.90458e-07
2.76667e-07
-3.5884e-07
3.19319e-07
-4.37804e-07
3.66248e-07
-5.27997e-07
4.17358e-07
-6.29806e-07
4.7238e-07
-7.43301e-07
5.308e-07
-8.68158e-07
5.91682e-07
-1.00345e-06
6.53905e-07
-1.14895e-06
-1.30072e-06
7.14245e-07
1.67163e-10
1.06058e-09
7.09205e-10
2.92219e-09
1.69521e-09
4.55484e-09
3.20343e-09
5.83919e-09
5.32228e-09
6.63058e-09
8.15155e-09
6.75537e-09
1.18035e-08
6.007e-09
1.64041e-08
4.14177e-09
2.20942e-08
8.74277e-10
2.90309e-08
-4.12725e-09
3.73885e-08
-1.12458e-08
4.73593e-08
-2.09201e-08
5.91545e-08
-3.36492e-08
7.30038e-08
-4.99958e-08
8.91548e-08
-7.05885e-08
1.07871e-07
-9.61222e-08
1.29427e-07
-1.27355e-07
1.54104e-07
-1.65101e-07
1.82179e-07
-2.10219e-07
2.13917e-07
-2.6359e-07
2.4955e-07
-3.2609e-07
2.89259e-07
-3.98549e-07
3.33149e-07
-4.81694e-07
3.812e-07
-5.76049e-07
4.33262e-07
-6.81869e-07
4.89016e-07
-7.99055e-07
5.47916e-07
-9.27058e-07
6.08987e-07
-1.06452e-06
6.70289e-07
-1.21026e-06
-1.35536e-06
7.24935e-07
1.75952e-10
8.84625e-10
7.46842e-10
2.3513e-09
1.78574e-09
3.51594e-09
3.37533e-09
4.2496e-09
5.60899e-09
4.39692e-09
8.59192e-09
3.77244e-09
1.24423e-08
2.15665e-09
1.72923e-08
-7.08266e-10
2.32895e-08
-5.12297e-09
3.05979e-08
-1.14356e-08
3.93985e-08
-2.00464e-08
4.98906e-08
-3.14121e-08
6.22913e-08
-4.60499e-08
7.68356e-08
-6.454e-08
9.3774e-08
-8.7527e-08
1.1337e-07
-1.15719e-07
1.35897e-07
-1.49881e-07
1.61625e-07
-1.90829e-07
1.90819e-07
-2.39413e-07
2.23719e-07
-2.9649e-07
2.60526e-07
-3.62897e-07
3.01379e-07
-4.39402e-07
3.4632e-07
-5.26635e-07
3.9527e-07
-6.24999e-07
4.48029e-07
-7.34627e-07
5.04249e-07
-8.55275e-07
5.63421e-07
-9.8623e-07
6.2495e-07
-1.12605e-06
6.88044e-07
-1.27335e-06
-1.42316e-06
7.55838e-07
1.8549e-10
6.99135e-10
7.87295e-10
1.74949e-09
1.88236e-09
2.42088e-09
3.55769e-09
2.57427e-09
5.91146e-09
2.04315e-09
9.05406e-09
6.29833e-10
1.31093e-08
-1.89854e-09
1.82153e-08
-5.81427e-09
2.45258e-08
-1.14335e-08
3.22112e-08
-1.9121e-08
4.14589e-08
-2.92941e-08
5.24739e-08
-4.24271e-08
6.54784e-08
-5.90544e-08
8.07107e-08
-7.97723e-08
9.84229e-08
-1.05239e-07
1.18877e-07
-1.36172e-07
1.42338e-07
-1.73342e-07
1.69068e-07
-2.17559e-07
1.9931e-07
-2.69655e-07
2.33277e-07
-3.30458e-07
2.71133e-07
-4.00753e-07
3.12965e-07
-4.81234e-07
3.58748e-07
-5.72418e-07
4.08341e-07
-6.74592e-07
4.61467e-07
-7.87753e-07
5.17705e-07
-9.11512e-07
5.76483e-07
-1.04501e-06
6.37226e-07
-1.18679e-06
6.99226e-07
-1.33535e-06
-1.48569e-06
7.61754e-07
1.95847e-10
5.03289e-10
8.30848e-10
1.11449e-09
1.98572e-09
1.26601e-09
3.75166e-09
8.08325e-10
6.23143e-09
-4.36612e-10
9.54038e-09
-2.67912e-09
1.38076e-08
-6.16574e-09
1.91768e-08
-1.11835e-08
2.58077e-08
-1.80644e-08
3.38761e-08
-2.71894e-08
4.35751e-08
-3.89931e-08
5.51143e-08
-5.39664e-08
6.87197e-08
-7.26598e-08
8.46314e-08
-9.5684e-08
1.03101e-07
-1.23708e-07
1.24385e-07
-1.57457e-07
1.48741e-07
-1.97698e-07
1.76413e-07
-2.45231e-07
2.07623e-07
-3.00865e-07
2.42551e-07
-3.65386e-07
2.81318e-07
-4.39519e-07
3.23948e-07
-5.23864e-07
3.70352e-07
-6.18822e-07
4.20317e-07
-7.24557e-07
4.73479e-07
-8.40916e-07
5.29315e-07
-9.67348e-07
5.87151e-07
-1.10284e-06
6.46239e-07
-1.24588e-06
7.05566e-07
-1.39468e-06
-1.54403e-06
7.63911e-07
2.07055e-10
2.96234e-10
8.77631e-10
4.43916e-10
2.09611e-09
4.75288e-11
3.95772e-09
-1.05329e-09
6.5696e-09
-3.04848e-09
1.00518e-08
-6.16131e-09
1.45384e-08
-1.06523e-08
2.01783e-08
-1.68234e-08
2.71363e-08
-2.50224e-08
3.55934e-08
-3.56465e-08
4.5747e-08
-4.91467e-08
5.78105e-08
-6.60299e-08
7.2012e-08
-8.68613e-08
8.85914e-08
-1.12264e-07
1.07797e-07
-1.42914e-07
1.29879e-07
-1.79539e-07
1.55081e-07
-2.229e-07
1.8363e-07
-2.7378e-07
2.15718e-07
-3.32954e-07
2.5149e-07
-4.01158e-07
2.91015e-07
-4.79044e-07
3.34254e-07
-5.67102e-07
3.81053e-07
-6.65621e-07
4.31121e-07
-7.74625e-07
4.84007e-07
-8.93803e-07
5.39091e-07
-1.02243e-06
5.95608e-07
-1.15936e-06
6.52677e-07
-1.30295e-06
7.09182e-07
-1.45118e-06
-1.59885e-06
7.64002e-07
2.19112e-10
7.71218e-11
9.27624e-10
-2.64596e-10
2.21348e-09
-1.23832e-09
4.17576e-09
-3.01557e-09
6.92574e-09
-5.79847e-09
1.05879e-08
-9.82348e-09
1.53009e-08
-1.53653e-08
2.12184e-08
-2.27409e-08
2.85097e-08
-3.23136e-08
3.73599e-08
-4.44967e-08
4.79699e-08
-5.97567e-08
6.05555e-08
-7.86155e-08
7.53451e-08
-1.01651e-07
9.25767e-08
-1.29495e-07
1.12493e-07
-1.6283e-07
1.35334e-07
-2.0238e-07
1.61328e-07
-2.48894e-07
1.90677e-07
-3.03129e-07
2.23544e-07
-3.65821e-07
2.60032e-07
-4.37646e-07
3.00152e-07
-5.19164e-07
3.43804e-07
-6.10755e-07
3.9077e-07
-7.12587e-07
4.40682e-07
-8.24536e-07
4.93003e-07
-9.46124e-07
5.47039e-07
-1.07647e-06
6.01963e-07
-1.21429e-06
6.56837e-07
-1.35782e-06
7.10571e-07
-1.50492e-06
-1.6505e-06
7.6222e-07
2.3198e-10
-1.54858e-10
9.80685e-10
-1.0133e-09
2.33748e-09
-2.59511e-09
4.40512e-09
-5.08322e-09
7.29882e-09
-8.69217e-09
1.11471e-08
-1.36718e-08
1.60929e-08
-2.03111e-08
2.22938e-08
-2.89419e-08
2.9923e-08
-3.99428e-08
3.9169e-08
-5.37427e-08
5.02349e-08
-7.08226e-08
6.33372e-08
-9.17178e-08
7.87031e-08
-1.17017e-07
9.65665e-08
-1.47359e-07
1.17162e-07
-1.83426e-07
1.40716e-07
-2.25934e-07
1.67439e-07
-2.75616e-07
1.97505e-07
-3.33195e-07
2.31043e-07
-3.99359e-07
2.68107e-07
-4.74711e-07
3.08652e-07
-5.59708e-07
3.52521e-07
-6.54624e-07
3.99426e-07
-7.59492e-07
4.48927e-07
-8.74036e-07
5.00416e-07
-9.97613e-07
5.5315e-07
-1.1292e-06
6.06264e-07
-1.2674e-06
6.58817e-07
-1.41037e-06
7.09798e-07
-1.5559e-06
-1.69916e-06
7.5846e-07
2.45593e-10
-4.00451e-10
1.03655e-09
-1.80426e-09
2.46752e-09
-4.02608e-09
4.64475e-09
-7.26045e-09
7.68707e-09
-1.17345e-08
1.17268e-08
-1.77115e-08
1.69104e-08
-2.54947e-08
2.33991e-08
-3.54306e-08
3.1369e-08
-4.79128e-08
4.10109e-08
-6.33845e-08
5.2529e-08
-8.23407e-08
6.6139e-08
-1.05328e-07
8.20651e-08
-1.32943e-07
1.00535e-07
-1.65828e-07
1.21771e-07
-2.04663e-07
1.45986e-07
-2.50149e-07
1.73366e-07
-3.02996e-07
2.04057e-07
-3.63886e-07
2.38148e-07
-4.3345e-07
2.75641e-07
-5.12203e-07
3.16437e-07
-6.00504e-07
3.60322e-07
-6.98509e-07
4.06943e-07
-8.06113e-07
4.55789e-07
-9.22882e-07
5.06203e-07
-1.04803e-06
5.57407e-07
-1.18041e-06
6.08525e-07
-1.31852e-06
6.58646e-07
-1.46049e-06
7.06863e-07
-1.60411e-06
-1.74492e-06
7.52618e-07
2.59868e-10
-6.60319e-10
1.09488e-09
-2.63928e-09
2.60281e-09
-5.534e-09
4.89316e-09
-9.5508e-09
8.08812e-09
-1.49295e-08
1.23233e-08
-2.19467e-08
1.77483e-08
-3.09197e-08
2.45272e-08
-4.22095e-08
3.28383e-08
-5.62239e-08
4.28734e-08
-7.34197e-08
5.48366e-08
-9.43038e-08
6.89411e-08
-1.19432e-07
8.54061e-08
-1.49408e-07
1.0445e-07
-1.84872e-07
1.26284e-07
-2.26496e-07
1.511e-07
-2.74965e-07
1.79058e-07
-3.30954e-07
2.10274e-07
-3.95102e-07
2.4479e-07
-4.67966e-07
2.82559e-07
-5.49972e-07
3.23431e-07
-6.41376e-07
3.67132e-07
-7.4221e-07
4.13246e-07
-8.52227e-07
4.61206e-07
-9.70843e-07
5.10322e-07
-1.09714e-06
5.59793e-07
-1.22988e-06
6.08757e-07
-1.36748e-06
6.56349e-07
-1.50809e-06
7.01776e-07
-1.64954e-06
-1.7878e-06
7.44656e-07
2.747e-10
-9.35019e-10
1.15526e-09
-3.51983e-09
2.74238e-09
-7.12113e-09
5.14861e-09
-1.1957e-08
8.49912e-09
-1.828e-08
1.29324e-08
-2.638e-08
1.86006e-08
-3.6588e-08
2.567e-08
-4.92788e-08
3.43199e-08
-6.48738e-08
4.47423e-08
-8.38421e-08
5.71395e-08
-1.06701e-07
7.17208e-08
-1.34014e-07
8.86983e-08
-1.66385e-07
1.08279e-07
-2.04453e-07
1.30659e-07
-2.48876e-07
1.56008e-07
-3.00314e-07
1.8446e-07
-3.59406e-07
2.16091e-07
-4.26733e-07
2.50898e-07
-5.02774e-07
2.88788e-07
-5.87862e-07
3.29558e-07
-6.82146e-07
3.72876e-07
-7.85529e-07
4.18269e-07
-8.9762e-07
4.65131e-07
-1.0177e-06
5.12743e-07
-1.14476e-06
5.60304e-07
-1.27744e-06
6.06976e-07
-1.41415e-06
6.5196e-07
-1.55307e-06
6.94572e-07
-1.69215e-06
-1.82782e-06
7.34593e-07
2.89975e-10
-1.22499e-09
1.2172e-09