/*--------------------------------*- C++ -*----------------------------------*\
| =========                 |                                                 |
| \\      /  F ield         | foam-extend: Open Source CFD                    |
|  \\    /   O peration     | Version:     4.0                                |
|   \\  /    A nd           | Web:         http://www.foam-extend.org         |
|    \\/     M anipulation  |                                                 |
\*---------------------------------------------------------------------------*/
FoamFile
{
    version     2.0;
    format      ascii;
    class       volVectorField;
    location    "35";
    object      U;
}
// * * * * * * * * * * * * * * * * * * * * * * * * * * * * * * * * * * * * * //

dimensions      [0 1 -1 0 0 0 0];

internalField   nonuniform List<vector> 
36000
(
(-4.6403e-07 2.13424e-06 -2.39468e-25)
(-4.5895e-06 6.02499e-06 2.47244e-25)
(-1.31201e-05 9.65646e-06 0)
(-2.60776e-05 1.3013e-05 0)
(-4.33832e-05 1.60802e-05 -2.16766e-25)
(-6.49667e-05 1.88438e-05 -2.05973e-25)
(-9.07383e-05 2.12901e-05 0)
(-0.000120554 2.34066e-05 0)
(-0.000154208 2.51819e-05 0)
(-0.00019143 2.66055e-05 0)
(-0.000231886 2.76679e-05 0)
(-0.00027517 2.83605e-05 -2.88992e-25)
(-0.000320803 2.86749e-05 -5.55032e-28)
(-0.000368233 2.86038e-05 -2.52495e-25)
(-0.000416827 2.81396e-05 2.34946e-25)
(-0.00046587 2.7275e-05 -2.1855e-25)
(-0.00051456 2.6002e-05 4.05761e-25)
(-0.000562007 2.43121e-05 -1.87112e-25)
(-0.000607226 2.21962e-05 1.73441e-25)
(-0.000649133 1.96438e-05 4.77336e-25)
(-0.000686544 1.66437e-05 -1.45183e-27)
(-0.000718167 1.31845e-05 5.32401e-25)
(-0.000742605 9.2548e-06 -1.22214e-25)
(-0.000758357 4.84521e-06 -2.1702e-25)
(-0.00076376 -1.03999e-08 -1.95679e-25)
(-0.000757439 -5.29434e-06 0)
(-0.000737423 -1.1092e-05 0)
(-0.000702005 -1.73217e-05 0)
(-0.000649547 -2.39309e-05 1.15648e-25)
(-0.000577851 -3.0888e-05 -2.04611e-25)
(-6.82544e-07 6.42309e-06 0)
(-5.16359e-06 1.8136e-05 0)
(-1.39662e-05 2.90723e-05 0)
(-2.71115e-05 3.91844e-05 9.14398e-25)
(-4.45206e-05 4.84284e-05 -2.13145e-25)
(-6.61235e-05 5.67606e-05 2.0595e-25)
(-9.18302e-05 6.41393e-05 0)
(-0.000121497 7.0526e-05 0)
(-0.000154917 7.58855e-05 -6.98955e-25)
(-0.000191823 8.01859e-05 6.55545e-25)
(-0.000231878 8.33977e-05 -6.17888e-25)
(-0.000274679 8.54939e-05 5.77806e-25)
(-0.000319748 8.64492e-05 2.7038e-25)
(-0.000366531 8.62404e-05 2.53417e-25)
(-0.000414396 8.48446e-05 4.70843e-25)
(-0.000462628 8.22389e-05 0)
(-0.000510425 7.83991e-05 -1.21685e-24)
(-0.000556896 7.32994e-05 2.71967e-27)
(-0.000601055 6.69119e-05 1.38682e-24)
(-0.000641818 5.92052e-05 -9.59097e-25)
(-0.000677999 5.01462e-05 -5.86814e-25)
(-0.000708304 3.97016e-05 5.33187e-25)
(-0.000731339 2.78411e-05 -4.90174e-25)
(-0.000745609 1.45434e-05 8.83366e-25)
(-0.00074949 -1.25502e-07 4.85008e-27)
(-0.000741449 -1.61494e-05 7.07674e-25)
(-0.000719675 -3.36219e-05 -9.5069e-25)
(-0.000682436 -5.24073e-05 0)
(-0.000628156 -7.2338e-05 0)
(-0.000554319 -9.33108e-05 0)
(-1.11389e-06 1.06095e-05 9.66485e-25)
(-6.29703e-06 2.99645e-05 8.02387e-27)
(-1.56369e-05 4.80456e-05 -1.43712e-24)
(-2.91526e-05 6.47728e-05 1.83821e-24)
(-4.67659e-05 8.0072e-05 -2.17409e-24)
(-6.84065e-05 9.387e-05 -1.66201e-24)
(-9.39836e-05 0.000106096 3.14116e-24)
(-0.000123353 0.000116685 -1.48162e-24)
(-0.00015631 0.000125578 0)
(-0.000192586 0.000132719 0)
(-0.000231846 0.000138058 0)
(-0.000273687 0.00014155 0)
(-0.000317633 0.00014315 1.08766e-24)
(-0.000363129 0.000142819 -2.5359e-24)
(-0.000409545 0.000140518 1.8941e-24)
(-0.000456164 0.000136207 0)
(-0.000502184 0.000129846 8.14578e-25)
(-0.000546713 0.00012139 -7.55945e-25)
(-0.000588763 0.000110793 0)
(-0.000627247 9.80017e-05 0)
(-0.000660977 8.29623e-05 2.93779e-24)
(-0.00068866 6.56206e-05 -1.61747e-24)
(-0.000708901 4.59291e-05 0)
(-0.00072021 2.38555e-05 -7.0174e-27)
(-0.000720995 -5.15706e-07 -8.07274e-25)
(-0.000709633 -2.71926e-05 -7.32942e-25)
(-0.00068438 -5.6204e-05 6.05938e-25)
(-0.000643535 -8.73836e-05 5.51283e-25)
(-0.000585644 -0.000120456 0)
(-0.000507552 -0.000155237 1.23984e-24)
(-1.7455e-06 1.46283e-05 0)
(-7.95722e-06 4.13308e-05 0)
(-1.80844e-05 6.62938e-05 4.81664e-25)
(-3.21428e-05 8.94047e-05 -1.85223e-24)
(-5.00548e-05 0.000110559 3.51505e-24)
(-7.17491e-05 0.000129653 -2.50317e-24)
(-9.71335e-05 0.000146586 0)
(-0.000126064 0.000161265 0)
(-0.000158335 0.000173605 -2.12116e-24)
(-0.000193679 0.000183526 2.65469e-24)
(-0.000231762 0.000190956 -1.24509e-24)
(-0.000272182 0.000195828 -1.17371e-24)
(-0.000314464 0.000198079 2.18846e-24)
(-0.000358054 0.00019765 -2.04094e-24)
(-0.00040232 0.000194485 -9.48489e-25)
(-0.000446546 0.000188527 0)
(-0.00048993 0.000179717 -3.28764e-24)
(-0.000531575 0.000167993 -4.29815e-27)
(-0.000570492 0.000153286 2.80756e-24)
(-0.000605592 0.000135526 1.91339e-27)
(-0.000635683 0.000114635 -1.70949e-27)
(-0.00065947 9.05399e-05 -1.30293e-26)
(-0.000675562 6.31746e-05 -9.93512e-25)
(-0.000682473 3.2513e-05 1.79799e-24)
(-0.000678632 -1.38417e-06 0)
(-0.000662374 -3.85209e-05 1.59996e-26)
(-0.000631997 -7.88547e-05 2.55974e-24)
(-0.000585839 -0.000122176 -1.17331e-24)
(-0.000522628 -0.000168104 -2.99471e-24)
(-0.000438219 -0.000216358 -2.54489e-24)
(-2.55917e-06 1.84192e-05 1.47736e-24)
(-1.00968e-05 5.20676e-05 -3.05807e-24)
(-2.12392e-05 8.35534e-05 1.94772e-24)
(-3.59973e-05 0.000112731 1.87062e-24)
(-5.42934e-05 0.000139466 -1.76958e-24)
(-7.60541e-05 0.000163621 8.38588e-25)
(-0.000101185 0.000185066 -2.39649e-24)
(-0.000129541 0.000203679 6.0322e-24)
(-0.000160915 0.000219345 -7.01122e-25)
(-0.000195041 0.00023196 1.34536e-24)
(-0.000231585 0.000241427 -1.26339e-24)
(-0.000270146 0.000247655 1.17358e-24)
(-0.000310247 0.000250561 0)
(-0.000351338 0.000250065 0)
(-0.000392786 0.000246091 3.84458e-24)
(-0.000433872 0.000238563 -1.78374e-24)
(-0.000473793 0.000227403 1.6481e-24)
(-0.000511651 0.000212528 1.52564e-24)
(-0.000546451 0.000193851 -2.8308e-24)
(-0.000577102 0.000171277 -3.90516e-24)
(-0.00060241 0.000144711 1.20078e-24)
(-0.000621078 0.000114058 4.3763e-24)
(-0.000631719 7.92404e-05 -2.00748e-24)
(-0.000632858 4.02398e-05 2.24017e-26)
(-0.000622925 -2.93142e-06 1.64281e-24)
(-0.000600255 -5.02463e-05 -1.47324e-24)
(-0.000563185 -0.000101596 -1.27517e-24)
(-0.000510099 -0.000156715 5.1246e-26)
(-0.000439978 -0.00021512 9.87935e-25)
(-0.000347259 -0.0002764 1.70629e-24)
(-3.53176e-06 2.19281e-05 4.48091e-24)
(-1.26553e-05 6.20244e-05 -1.02851e-24)
(-2.50125e-05 9.95866e-05 0)
(-4.06073e-05 0.000134437 -9.50712e-25)
(-5.93608e-05 0.000166407 -4.50443e-24)
(-8.11963e-05 0.000195329 5.11477e-24)
(-0.000106015 0.000221039 2.43099e-24)
(-0.000133669 0.000243385 -1.5085e-24)
(-0.000163951 0.000262222 1.44882e-24)
(-0.000196592 0.000277418 -6.75243e-24)
(-0.000231259 0.000288849 3.79881e-24)
(-0.000267551 0.000296399 -1.18492e-24)
(-0.00030499 0.00029996 4.45065e-24)
(-0.000343026 0.00029943 -2.07676e-24)
(-0.000381024 0.000294711 -5.80974e-24)
(-0.000418265 0.000285706 3.60044e-24)
(-0.000453942 0.000272315 -3.34127e-24)
(-0.000487155 0.000254435 -7.10333e-27)
(-0.000516906 0.000231956 -1.45359e-24)
(-0.000542098 0.000204765 -1.315e-24)
(-0.000561535 0.000172741 4.83634e-24)
(-0.000573925 0.000135779 -4.42696e-24)
(-0.000577886 9.37979e-05 0)
(-0.000571946 4.67485e-05 -1.85236e-24)
(-0.00055454 -5.36565e-06 -1.68038e-24)
(-0.000524028 -6.24923e-05 -3.02816e-24)
(-0.000478792 -0.000124466 2.67196e-24)
(-0.000417268 -0.000190945 0)
(-0.000338837 -0.000261355 5.08808e-24)
(-0.000235837 -0.000335156 -9.1025e-25)
(-4.63609e-06 2.51087e-05 0)
(-1.55618e-05 7.10715e-05 0)
(-2.92995e-05 0.000114187 0)
(-4.58442e-05 0.000154244 -1.42002e-26)
(-6.5114e-05 0.000191042 6.38625e-24)
(-8.70267e-05 0.000224379 -5.15988e-24)
(-0.000111478 0.000254059 3.27351e-24)
(-0.000138313 0.000279897 -6.16704e-24)
(-0.000167323 0.000301715 -1.46381e-24)
(-0.000198236 0.000319352 -2.73864e-24)
(-0.000230717 0.000332653 2.56468e-24)
(-0.000264363 0.000341476 1.2115e-24)
(-0.000298696 0.000345684 1.56498e-26)
(-0.000333162 0.000345152 0)
(-0.000367126 0.000339757 -2.26796e-26)
(-0.000399867 0.000329378 1.80753e-24)
(-0.000430573 0.000313892 -1.68113e-24)
(-0.00045834 0.000293174 1.55625e-24)
(-0.000482168 0.000267091 5.78712e-24)
(-0.000500955 0.000235507 -2.62219e-26)
(-0.000513507 0.000198292 -2.48597e-24)
(-0.000518535 0.000155322 -2.22586e-24)
(-0.000514662 0.000106496 -3.79111e-27)
(-0.000500419 5.17548e-05 -1.90624e-24)
(-0.00047426 -8.9048e-06 -3.39524e-24)
(-0.000434581 -7.54046e-05 4.56021e-24)
(-0.000379824 -0.000147521 -1.30206e-24)
(-0.000308467 -0.000224829 -2.3382e-24)
(-0.000220587 -0.000306656 -4.08273e-24)
(-0.000105445 -0.000392336 1.86445e-24)
(-5.84198e-06 2.79234e-05 -4.12226e-24)
(-1.8737e-05 7.91022e-05 0)
(-3.39834e-05 0.000127183 -4.09335e-24)
(-5.15641e-05 0.000171922 4.84462e-24)
(-7.13921e-05 0.000213085 -5.53625e-24)
(-9.33772e-05 0.000250436 7.0049e-24)
(-0.000117406 0.000283746 -6.6262e-24)
(-0.000143317 0.000312793 1.54368e-24)
(-0.000170893 0.000337369 2.92207e-24)
(-0.00019986 0.000357277 -1.66016e-26)
(-0.000229877 0.000372333 -5.21588e-24)
(-0.000260538 0.000382361 4.87537e-24)
(-0.000291362 0.000387199 -4.55223e-24)
(-0.000321792 0.00038669 -8.50472e-24)
(-0.00035119 0.000380687 5.93155e-24)
(-0.00037883 0.000369042 1.83175e-24)
(-0.000403898 0.000351608 -5.14487e-24)
(-0.000425484 0.000328234 -3.19151e-24)
(-0.000442582 0.000298768 -2.91155e-24)
(-0.000454094 0.000263055 8.10029e-24)
(-0.000458825 0.000220944 -2.52817e-24)
(-0.00045549 0.000172296 4.91129e-27)
(-0.000442714 0.000116996 -4.22312e-24)
(-0.000419043 5.49738e-05 7.57245e-24)
(-0.000382962 -1.37715e-05 3.39591e-24)
(-0.000332911 -8.91341e-05 -3.05385e-24)
(-0.000267399 -0.000170831 7.59353e-26)
(-0.000184915 -0.000258349 2.48916e-24)
(-8.66445e-05 -0.00035092 4.2089e-24)
(4.18439e-05 -0.000446965 -5.65988e-24)
(-7.11737e-06 3.03441e-05 4.2101e-24)
(-2.20968e-05 8.60356e-05 -5.44569e-24)
(-3.8939e-05 0.000138442 -4.16421e-24)
(-5.76123e-05 0.000187289 3.94693e-24)
(-7.80215e-05 0.000232308 3.76187e-24)
(-0.000100065 0.000273228 -1.75786e-24)
(-0.000123618 0.000309786 0)
(-0.000148507 0.000341724 0)
(-0.000174507 0.000368799 1.48397e-24)
(-0.000201334 0.000390781 2.7902e-24)
(-0.000228642 0.000407449 7.89452e-24)
(-0.000256018 0.000418597 -4.93411e-24)
(-0.000282977 0.000424029 -3.15054e-26)
(-0.000308955 0.00042356 4.30995e-24)
(-0.00033331 0.000417012 -2.02116e-24)
(-0.000355311 0.000404208 -3.73504e-24)
(-0.000374136 0.000384978 1.04014e-23)
(-0.000388874 0.000359145 3.18518e-24)
(-0.000398516 0.000326535 1.76384e-26)
(-0.000401962 0.000286971 1.23012e-26)
(-0.000398018 0.000240286 -2.54722e-26)
(-0.000385403 0.000186325 2.30306e-24)
(-0.000362753 0.000124962 6.33732e-24)
(-0.000328638 5.61219e-05 6.82831e-26)
(-0.00028158 -2.01912e-05 3.45677e-24)
(-0.000220078 -0.00010384 -9.468e-24)
(-0.000142716 -0.00019449 -5.55385e-24)
(-4.79076e-05 -0.00029153 8.79947e-26)
(6.21858e-05 -0.000394383 2.2562e-24)
(0.000204113 -0.000499288 3.7473e-24)
(-8.42947e-06 3.23523e-05 -3.21086e-24)
(-2.55543e-05 9.18167e-05 5.5318e-24)
(-4.40371e-05 0.000147874 -2.13724e-24)
(-6.38282e-05 0.000200216 6.06437e-24)
(-8.48211e-05 0.000248544 -3.81445e-24)
(-0.000106899 0.000292552 -1.79394e-24)
(-0.000129921 0.00033194 -6.84503e-24)
(-0.0001537 0.000366417 6.44038e-24)
(-0.000177997 0.000395702 -3.05914e-24)
(-0.000202517 0.000419529 0)
(-0.000226904 0.000437641 -5.35255e-24)
(-0.000250736 0.000449799 5.00551e-24)
(-0.000273518 0.000455772 -2.3588e-24)
(-0.000294681 0.000455344 4.36811e-24)
(-0.000313574 0.000448302 2.02164e-24)
(-0.000329458 0.000434444 0)
(-0.000341508 0.000413569 4.9689e-26)
(-0.000348805 0.000385477 0)
(-0.000350339 0.000349968 4.39321e-26)
(-0.000345008 0.000306848 5.5797e-24)
(-0.00033162 0.000255932 5.14933e-24)
(-0.000308903 0.000197052 2.32373e-24)
(-0.000275512 0.000130073 -1.28714e-23)
(-0.000230046 5.49179e-05 5.87146e-26)
(-0.000171077 -2.83952e-05 0)
(-9.71713e-05 -0.000119699 6.4271e-24)
(-7.02853e-06 -0.000218615 9.85677e-27)
(0.000100886 -0.000324434 7.80463e-24)
(0.00022416 -0.000436884 0)
(0.000380537 -0.000550133 -3.97266e-24)
(-9.74582e-06 3.39395e-05 1.12842e-24)
(-2.90232e-05 9.64174e-05 2.2883e-24)
(-4.91485e-05 0.000155425 4.31632e-24)
(-7.00504e-05 0.000210627 -1.23152e-23)
(-9.16071e-05 0.000261689 5.80622e-24)
(-0.000113683 0.000308274 -5.51216e-24)
(-0.000136117 0.000350045 1.39043e-23)
(-0.000158704 0.000386677 -6.54769e-24)
(-0.000181187 0.000417853 6.16776e-24)
(-0.000203256 0.000443268 0)
(-0.00022454 0.000462631 0)
(-0.000244605 0.000475664 7.64658e-24)
(-0.000262946 0.000482103 2.87759e-27)
(-0.000278982 0.000481695 -4.43207e-24)
(-0.00029205 0.000474197 3.07139e-26)
(-0.000301405 0.000459377 -2.77629e-26)
(-0.000306215 0.000437002 -7.10757e-24)
(-0.00030555 0.000406847 3.30923e-24)
(-0.000298401 0.000368688 -3.03756e-24)
(-0.000283663 0.000322315 2.83491e-24)
(-0.000260153 0.000267526 -1.03815e-23)
(-0.000226611 0.00020414 -9.58475e-24)
(-0.000181715 0.000132019 4.45777e-24)
(-0.000124105 5.10896e-05 8.0512e-24)
(-5.24078e-05 -3.8616e-05 -3.66616e-24)
(3.47215e-05 -0.000136898 -3.24716e-24)
(0.000138475 -0.000243329 0)
(0.000260196 -0.000357106 -5.19525e-24)
(0.000397296 -0.00047804 0)
(0.000569179 -0.000599172 5.95578e-24)
(-1.10354e-05 3.51065e-05 -2.21113e-24)
(-3.24203e-05 9.98349e-05 6.96837e-24)
(-5.41476e-05 0.000161086 -8.74822e-24)
(-7.61204e-05 0.000218497 -3.9926e-26)
(-9.81981e-05 0.000271702 3.96211e-24)
(-0.000120222 0.000320331 -9.35611e-24)
(-0.000142006 0.000364015 7.06798e-24)
(-0.000163322 0.000402394 0)
(-0.000183892 0.000435114 3.16234e-24)
(-0.000203385 0.000461833 -8.84791e-24)
(-0.000221414 0.000482223 0)
(-0.000237527 0.000495971 -1.03249e-23)
(-0.000251204 0.000502775 4.82151e-24)
(-0.00026185 0.000502346 -4.53301e-24)
(-0.000268787 0.000494412 -4.12934e-24)
(-0.000271262 0.000478703 7.76911e-24)
(-0.000268426 0.000454959 0)
(-0.000259348 0.000422929 3.3812e-24)
(-0.000243014 0.000382369 6.20473e-24)
(-0.000218325 0.000333048 -1.15283e-23)
(-0.000184105 0.00027475 5.27512e-24)
(-0.000139111 0.000207288 -4.89743e-24)
(-8.20527e-05 0.00013052 -4.43945e-24)
(-1.16166e-05 4.43795e-05 -4.09494e-24)
(7.34967e-05 -5.10782e-05 -5.96961e-26)
(0.000174537 -0.000155613 0)
(0.000292563 -0.000268765 -6.09027e-24)
(0.000428755 -0.000389659 0)
(0.000580135 -0.000518083 0)
(0.000768151 -0.000646062 4.08884e-24)
(-1.22693e-05 3.58626e-05 2.30681e-24)
(-3.56675e-05 0.00010209 -2.38412e-24)
(-5.89151e-05 0.000164882 -1.12074e-23)
(-8.18869e-05 0.000223849 1.06262e-23)
(-0.000104419 0.000278598 -1.00757e-23)
(-0.000126325 0.000328727 1.14755e-23)
(-0.000147389 0.000373836 -7.20161e-24)
(-0.000167356 0.000413532 1.35574e-23)
(-0.000185922 0.000447426 -6.37029e-24)
(-0.000202733 0.00047514 2.96635e-24)
(-0.000217377 0.00049631 2.78021e-24)
(-0.000229385 0.000510585 -5.28158e-24)
(-0.000238214 0.000517627 0)
(-0.000243248 0.000517113 4.56798e-24)
(-0.000243797 0.000508736 3.13343e-26)
(-0.000239087 0.000492191 7.94016e-24)
(-0.000228261 0.000467193 -7.37593e-24)
(-0.000210388 0.000433464 3.426e-24)
(-0.000184446 0.000390742 -6.2583e-24)
(-0.000149342 0.000338775 1.16174e-23)
(-0.00010391 0.000277336 0)
(-4.69299e-05 0.00020623 0)
(2.28464e-05 0.000125324 9.00653e-24)
(0.000106677 3.45631e-05 4.06375e-24)
(0.000205773 -6.59733e-05 -7.53449e-24)
(0.000321284 -0.000176011 -3.45377e-24)
(0.000454119 -0.000295048 6.08782e-24)
(0.000605297 -0.000422139 5.57184e-24)
(0.000771305 -0.000557126 4.96274e-24)
(0.000975808 -0.000690753 -4.2998e-24)
(-1.34216e-05 3.62244e-05 -1.16317e-23)
(-3.86932e-05 0.000103224 2.38411e-24)
(-6.33409e-05 0.000166872 0)
(-8.72076e-05 0.000226754 0)
(-0.000110102 0.000282449 -8.22656e-24)
(-0.000131807 0.00033353 3.91744e-24)
(-0.000152073 0.000379568 0)
(-0.000170612 0.000420136 0)
(-0.000187087 0.000454815 -3.2132e-24)
(-0.000201119 0.000483192 9.14225e-24)
(-0.000212272 0.000504868 -4.50272e-26)
(-0.000220045 0.000519457 2.68334e-24)
(-0.000223866 0.000526584 -3.74504e-26)
(-0.000223103 0.000525894 -9.23743e-24)
(-0.000217039 0.000517039 8.66694e-24)
(-0.00020489 0.00049969 5.79278e-26)
(-0.000185794 0.000473533 3.70138e-24)
(-0.000158805 0.000438267 1.38716e-23)
(-0.0001229 0.000393606 -1.92044e-23)
(-7.69918e-05 0.000339286 0)
(-1.99295e-05 0.00027507 0)
(4.94759e-05 0.000200762 1.00612e-23)
(0.00013243 0.000116234 -4.61959e-24)
(0.000230122 2.14514e-05 4.24687e-24)
(0.000343665 -8.34766e-05 -3.81085e-24)
(0.000474092 -0.000198238 2.087e-23)
(0.00062214 -0.000322291 -6.47873e-26)
(0.000788665 -0.000454611 -8.4191e-24)
(0.000969522 -0.000595189 1.16859e-25)
(0.00119066 -0.000733245 8.61705e-24)
(-1.44691e-05 3.62144e-05 -7.11837e-24)
(-4.14335e-05 0.000103296 9.83108e-24)
(-6.73251e-05 0.00016714 0)
(-9.19518e-05 0.000227315 -8.85691e-24)
(-0.000115091 0.000283375 4.14982e-24)
(-0.000136491 0.000334865 0)
(-0.000155865 0.000381329 3.76127e-24)
(-0.000172889 0.000422313 -3.53778e-24)
(-0.000187193 0.00045737 -3.26728e-24)
(-0.000198364 0.000486064 -3.06432e-24)
(-0.000205921 0.000507958 2.86949e-24)
(-0.000209332 0.000522625 -1.0815e-23)
(-0.000208006 0.000529658 1.00957e-23)
(-0.000201282 0.000528668 4.74012e-24)
(-0.00018843 0.00051928 -8.76123e-24)
(-0.000168643 0.000501136 5.78614e-26)
(-0.000141042 0.000473895 -7.55868e-24)
(-0.000104672 0.000437231 -6.95353e-24)
(-5.85112e-05 0.000390842 6.45615e-24)
(-1.47709e-06 0.00033445 6.00537e-24)
(6.75602e-05 0.000267811 1.10978e-23)
(0.000149756 0.000190734 -1.0161e-23)
(0.000246265 0.000103101 0)
(0.00035819 4.9045e-06 -8.50498e-24)
(0.000486542 -0.000103715 -3.94594e-24)
(0.000632217 -0.000222403 -3.38777e-24)
(0.000795757 -0.000350573 9.5602e-24)
(0.000977846 -0.000487123 -5.6832e-24)
(0.00117363 -0.000632262 -4.86958e-24)
(0.00141136 -0.000773515 4.58002e-24)
(-1.53934e-05 3.58605e-05 -2.40528e-24)
(-4.38371e-05 0.000102378 2.53278e-24)
(-7.07871e-05 0.000165798 -2.40434e-24)
(-9.60134e-05 0.000225671 -2.27763e-24)
(-0.000119258 0.00028153 4.22846e-24)
(-0.000140231 0.000332902 1.21166e-23)
(-0.000158604 0.000379306 -1.51785e-23)
(-0.000174011 0.000420264 3.53776e-24)
(-0.000186045 0.000455298 -3.31944e-24)
(-0.000194245 0.000483938 1.25567e-23)
(-0.000198101 0.000505722 -1.17508e-23)
(-0.000197048 0.0005202 5.45318e-24)
(-0.000190463 0.000526934 -1.53631e-23)
(-0.000177653 0.000525505 -9.54025e-24)
(-0.000157863 0.000515506 1.77772e-23)
(-0.000130263 0.000496552 4.15498e-24)
(-9.39588e-05 0.000468276 -1.53922e-23)
(-4.7987e-05 0.000430335 1.42606e-23)
(8.67512e-06 0.000382408 -6.58583e-24)
(7.7101e-05 0.000324208 -6.12402e-24)
(0.000158397 0.000255491 7.76741e-26)
(0.00025368 0.000176072 0)
(0.00036404 8.58507e-05 4.78024e-24)
(0.000490487 -1.51514e-05 0)
(0.000633915 -0.000126756 7.86438e-24)
(0.000795062 -0.00024856 1.19496e-25)
(0.000974253 -0.00037993 0)
(0.00117199 -0.000519684 1.09565e-25)
(0.00138263 -0.000668305 -5.10212e-24)
(0.00163672 -0.000811507 4.67485e-24)
(-1.61803e-05 3.51963e-05 0)
(-4.58617e-05 0.000100559 -2.53278e-24)
(-7.36577e-05 0.000162977 -7.30124e-24)
(-9.92976e-05 0.000221986 1.61168e-23)
(-0.000122485 0.000277105 -1.3072e-23)
(-0.000142886 0.000327842 -4.05575e-24)
(-0.000160129 0.000373698 1.15507e-23)
(-0.000173802 0.000414175 -3.65822e-24)
(-0.000183453 0.000448772 3.42801e-24)
(-0.00018858 0.000476994 -6.38242e-24)
(-0.000188635 0.000498353 5.96311e-24)
(-0.000183014 0.000512373 -5.57672e-24)
(-0.000171057 0.000518592 -7.56825e-26)
(-0.000152037 0.000516561 5.35456e-27)
(-0.000125169 0.000505848 4.54273e-24)
(-8.96029e-05 0.000486044 0)
(-4.44244e-05 0.000456763 7.71985e-24)
(1.13384e-05 0.000417642 -7.15638e-24)
(7.87089e-05 0.00036835 0)
(0.000158748 0.000308594 6.1237e-24)
(0.000252537 0.000238131 2.92709e-26)
(0.000361144 0.000156787 -5.24823e-24)
(0.000485582 6.44886e-05 -1.44675e-23)
(0.000626763 -3.8712e-05 -8.87581e-24)
(0.000785446 -0.000152593 0)
(0.000962187 -0.000276694 -7.25834e-24)
(0.00115707 -0.000410335 0)
(0.00137039 -0.000552244 -5.90734e-24)
(0.00159567 -0.000703229 0)
(0.00186567 -0.000847115 -9.33452e-24)
(-1.68189e-05 3.42572e-05 0)
(-4.74733e-05 9.79347e-05 0)
(-7.58782e-05 0.000158824 0)
(-0.00010172 0.000216452 -9.3647e-24)
(-0.000124662 0.000270325 1.32264e-23)
(-0.000144323 0.000319938 -8.34826e-24)
(-0.000160284 0.000364781 3.95882e-24)
(-0.000172087 0.000404337 7.37675e-24)
(-0.00017923 0.000438088 0)
(-0.000181168 0.000465521 -6.5293e-24)
(-0.000177308 0.000486126 1.21066e-23)
(-0.000167007 0.000499405 -1.81754e-26)
(-0.000149558 0.000504876 -8.8247e-27)
(-0.000124204 0.000502063 -4.87709e-24)
(-9.01271e-05 0.000490516 4.59898e-24)
(-4.64502e-05 0.000469807 0)
(7.7584e-06 0.000439531 -1.5796e-23)
(7.34808e-05 0.000399312 1.45973e-23)
(0.00015174 0.000348812 -6.76134e-24)
(0.000243581 0.000287734 0)
(0.000350054 0.000215845 -5.75439e-24)
(0.000472171 0.000132987 5.31529e-24)
(0.000610857 3.91141e-05 4.82382e-24)
(0.000766916 -6.5682e-05 4.3608e-24)
(0.000940946 -0.00018113 0)
(0.0011333 -0.000306706 7.4743e-24)
(0.00134379 -0.000441681 0)
(0.00157251 -0.000584688 0)
(0.001812 -0.00073688 5.66102e-24)
(0.00209729 -0.000880174 9.46048e-24)
(-1.73016e-05 3.30784e-05 0)
(-4.86465e-05 9.4601e-05 0)
(-7.74032e-05 0.000153488 0)
(-0.000103214 0.000209263 9.53358e-24)
(-0.000125698 0.000261423 8.99587e-24)
(-0.000144426 0.000309456 -1.27726e-23)
(-0.000158931 0.000352843 4.0174e-24)
(-0.000168702 0.000391056 -7.44457e-24)
(-0.000173189 0.000423566 7.02231e-24)
(-0.000171799 0.000449844 -1.32033e-23)
(-0.000163892 0.000469366 2.4951e-26)
(-0.000148778 0.00048162 2.30595e-26)
(-0.000125708 0.0004861 5.39804e-24)
(-9.38866e-05 0.000482317 0)
(-5.24615e-05 0.000469805 -1.38507e-23)
(-5.2933e-07 0.000448119 8.60731e-24)
(6.28613e-05 0.000416844 7.92622e-24)
(0.000138703 0.000375594 -7.43709e-24)
(0.000228014 0.000324028 6.88206e-24)
(0.000331825 0.000261854 -6.31521e-24)
(0.000451145 0.000188847 1.16659e-23)
(0.000586912 0.000104877 -5.37949e-24)
(0.000739967 9.92817e-06 0)
(0.00091098 -9.58641e-05 1.79989e-23)
(0.00110037 -0.00021217 -1.66117e-23)
(0.00130826 -0.000338398 2.04958e-27)
(0.00153416 -0.000473767 -6.8656e-24)
(0.00177791 -0.000616803 -6.08189e-24)
(0.00203102 -0.000769036 -5.36553e-24)
(0.00233076 -0.000910459 0)
(-1.76238e-05 3.1695e-05 0)
(-4.93639e-05 9.06548e-05 0)
(-7.81982e-05 0.000147122 5.07334e-24)
(-0.000103724 0.00020062 -9.62804e-24)
(-0.000125514 0.000250642 -9.14958e-24)
(-0.000143092 0.000296674 1.29179e-23)
(-0.000155938 0.000338192 -4.09052e-24)
(-0.000163489 0.000374665 -7.61821e-24)
(-0.000165144 0.000405556 3.59726e-24)
(-0.00016026 0.000430328 0)
(-0.000148147 0.000448447 1.24671e-23)
(-0.000128062 0.00045939 -1.16592e-23)
(-9.92186e-05 0.000462638 0)
(-6.07768e-05 0.000457694 0)
(-1.18501e-05 0.000444079 -4.72192e-24)
(4.84935e-05 0.00042134 -8.76585e-24)
(0.000121225 0.000389052 8.12775e-24)
(0.000207346 0.00034683 7.43729e-24)
(0.00030787 0.000294332 -1.38469e-23)
(0.000423803 0.000231276 -6.4348e-24)
(0.000556101 0.000157457 5.93469e-24)
(0.000705632 7.27714e-05 -5.42247e-24)
(0.000873129 -2.27605e-05 5.00212e-24)
(0.00105911 -0.000128952 0)
(0.00126379 -0.00024541 -1.14907e-26)
(0.00148703 -0.000371469 2.28802e-23)
(0.001728 -0.000506292 -6.95154e-24)
(0.00198626 -0.000648286 0)
(0.00225221 -0.000799398 1.12594e-23)
(0.00256532 -0.000937676 -9.73629e-24)
(-1.77834e-05 3.01406e-05 0)
(-4.96142e-05 8.61899e-05 -1.10013e-23)
(-7.82377e-05 0.000139875 1.03591e-23)
(-0.000103206 0.000190722 4.9652e-24)
(-0.000124045 0.000238226 -9.32533e-24)
(-0.000140228 0.000281875 -4.3397e-24)
(-0.000151183 0.000321148 2.05849e-23)
(-0.000156295 0.000355512 -1.93675e-23)
(-0.00015491 0.00038443 1.09229e-23)
(-0.000146332 0.000407363 6.83096e-24)
(-0.000129819 0.000423775 6.37805e-24)
(-0.000104579 0.000433134 0)
(-6.97782e-05 0.000434918 -1.09848e-23)
(-2.45357e-05 0.000428625 1.02454e-23)
(3.20711e-05 0.000413771 1.42161e-23)
(0.000101003 0.0003899 -8.94285e-24)
(0.00018325 0.000356586 9.93559e-26)
(0.000279821 0.000313447 -7.56533e-24)
(0.00039172 0.000260149 6.93231e-24)
(0.000519919 0.000196425 6.43288e-24)
(0.000665313 0.000122097 6.69259e-26)
(0.000828691 3.70889e-05 0)
(0.00101066 -5.85334e-05 1.0148e-23)
(0.00121155 -0.000164528 0)
(0.00143136 -0.000280434 8.50199e-24)
(0.00166966 -0.000405506 8.73727e-26)
(0.00192521 -0.000538849 6.92617e-24)
(0.00219727 -0.000678736 -1.17281e-25)
(0.00247509 -0.000827585 -2.24841e-23)
(0.00280024 -0.000961474 1.4777e-23)
(-1.778e-05 2.84465e-05 0)
(-4.93906e-05 8.12948e-05 -1.11918e-23)
(-7.75026e-05 0.000131889 2.64957e-23)
(-0.000101623 0.000179761 -4.98984e-24)
(-0.00012123 0.000224414 0)
(-0.000135748 0.000265341 7.13355e-26)
(-0.000144551 0.000302028 1.67327e-23)
(-0.000146972 0.00033395 -1.5744e-23)
(-0.000142303 0.000360572 -7.28242e-24)
(-0.000129796 0.00038136 6.95442e-24)
(-0.000108651 0.000395782 -2.56764e-23)
(-7.80319e-05 0.000403302 2.99853e-23)
(-3.70548e-05 0.000403405 -2.23013e-23)
(1.52027e-05 0.000395588 5.16621e-24)
(7.96996e-05 0.000379369 -9.61482e-24)
(0.000157425 0.000354296 8.9018e-24)
(0.000249385 0.000319948 8.38831e-24)
(0.000356593 0.000275953 -7.65415e-24)
(0.000480036 0.00022199 7.01331e-24)
(0.000620638 0.000157818 -6.53166e-24)
(0.000779237 8.32838e-05 4.16392e-26)
(0.000956515 -1.6491e-06 0)
(0.00115293 -9.68664e-05 -1.01431e-23)
(0.00136862 -0.000202065 8.04181e-26)
(0.00160331 -0.000316715 7.75749e-26)
(0.00185623 -0.000439991 7.81521e-24)
(0.00212574 -0.000570932 -7.10487e-24)
(0.00241065 -0.000707665 1.28003e-23)
(0.00269916 -0.000853149 1.15122e-23)
(0.00303474 -0.000981451 0)
(-1.7614e-05 2.66409e-05 1.10672e-23)
(-4.86886e-05 7.60504e-05 -2.87309e-24)
(-7.59774e-05 0.000123295 0)
(-9.89421e-05 0.000167918 -5.0598e-24)
(-0.000117015 0.000209431 0)
(-0.000129571 0.000247342 -4.49362e-24)
(-0.00013593 0.000281145 0)
(-0.000135373 0.000310328 -1.19144e-23)
(-0.000127139 0.000334367 -7.36381e-24)
(-0.000110425 0.000352738 2.10248e-23)
(-8.43798e-05 0.000364912 6.47039e-24)
(-4.81157e-05 0.000370368 -1.81536e-23)
(-7.02895e-07 0.000368596 3.9993e-26)
(5.8823e-05 0.000359101 2.62273e-23)
(0.000131456 0.000341409 -3.21672e-26)
(0.000218211 0.000315079 -1.81567e-23)
(0.00032011 0.000279703 -8.32812e-24)
(0.000438162 0.000234923 0)
(0.00057332 0.000180445 7.122e-24)
(0.000726469 0.000116053 6.60035e-24)
(0.000898363 4.16256e-05 -1.22261e-23)
(0.00108956 -4.28272e-05 0)
(0.00130035 -0.000137138 -1.03518e-23)
(0.00153063 -0.000240939 -9.39105e-24)
(0.00177983 -0.000353631 -8.58626e-24)
(0.00204681 -0.000474307 -7.72849e-24)
(0.00232947 -0.000601944 7.17317e-24)
(0.00262606 -0.000734508 -1.27932e-23)
(0.00292391 -0.000875584 1.12097e-25)
(0.00326802 -0.000997177 1.00116e-23)
(-1.72864e-05 2.47482e-05 0)
(-4.75049e-05 7.05286e-05 -4.77732e-26)
(-7.36481e-05 0.000114212 -1.64889e-23)
(-9.51335e-05 0.000155357 5.15928e-24)
(-0.000111348 0.00019349 0)
(-0.000121615 0.000228133 2.30104e-23)
(-0.000125207 0.000258798 -3.89276e-23)
(-0.000121351 0.000284988 8.1331e-24)
(-0.000109233 0.000306196 -1.51376e-23)
(-8.79947e-05 0.000321912 7.16404e-24)
(-5.67368e-05 0.000331622 0)
(-1.452e-05 0.000334819 0)
(3.96303e-05 0.000331007 -5.76534e-24)
(0.000106719 0.000319707 5.35553e-24)
(0.000187773 0.000300462 0)
(0.000283829 0.000272844 9.09965e-24)
(0.000395919 0.000236466 0)
(0.00052503 0.000190998 1.57094e-23)
(0.000672092 0.00013617 -7.25118e-24)
(0.000837926 7.17991e-05 0)
(0.00102319 -2.19332e-06 -6.25116e-24)
(0.00122829 -8.57492e-05 0)
(0.00145331 -0.000178642 2.07967e-23)
(0.0016979 -0.000280441 9.57355e-24)
(0.00196112 -0.000390476 8.7459e-24)
(0.00224146 -0.00050776 0)
(0.00253619 -0.000631196 9.06785e-26)
(0.00284308 -0.00075865 6.54244e-24)
(0.00314873 -0.000894343 -1.16116e-23)
(0.00349909 -0.00100821 -1.00059e-23)
(-1.67973e-05 2.27896e-05 1.14421e-23)
(-4.58352e-05 6.47917e-05 -3.0169e-24)
(-7.04994e-05 0.000104747 -8.98797e-26)
(-9.01651e-05 0.000142229 1.57466e-23)
(-0.000104174 0.000176784 -1.4958e-23)
(-0.000111802 0.000207953 -4.63737e-24)
(-0.000112272 0.000235269 -6.68246e-26)
(-0.00010476 0.000258256 -6.15058e-26)
(-8.83995e-05 0.000276428 0)
(-6.22809e-05 0.000289294 -1.43462e-23)
(-2.5455e-05 0.00029636 2.00637e-23)
(2.30649e-05 0.000297143 -1.25115e-23)
(8.42968e-05 0.000291166 1.16094e-23)
(0.000159283 0.000277971 -5.3562e-24)
(0.000249079 0.000257122 0)
(0.000354741 0.000228216 9.32404e-24)
(0.00047729 0.000190897 -6.62174e-26)
(0.000617701 0.00014486 -7.84889e-24)
(0.000776859 8.98707e-05 7.30526e-24)
(0.000955505 2.57854e-05 -6.76048e-24)
(0.00115417 -4.74271e-05 2.48639e-23)
(0.0013731 -0.000129655 -2.28985e-23)
(0.00161214 -0.000220612 1.05431e-23)
(0.00187063 -0.0003198 -3.84488e-23)
(0.00214728 -0.000426478 -1.74826e-23)
(0.00244006 -0.000539587 9.41568e-26)
(0.00274561 -0.000657962 1.46281e-23)
(0.00306122 -0.00077943 1.95844e-23)
(0.00337292 -0.00090884 -5.93486e-24)
(0.00372679 -0.0010141 0)
(-1.61463e-05 2.07819e-05 -1.16307e-23)
(-4.36727e-05 5.88925e-05 -9.6732e-26)
(-6.65132e-05 9.49883e-05 5.62174e-24)
(-8.40019e-05 0.000128664 5.29183e-24)
(-9.54369e-05 0.000159487 -2.52499e-23)
(-0.000100049 0.000187019 3.79712e-23)
(-9.70114e-05 0.00021082 -2.67349e-23)
(-8.54528e-05 0.000230439 4.17521e-23)
(-6.4455e-05 0.000245415 -1.56554e-23)
(-3.30604e-05 0.000255281 -2.18978e-23)
(9.7283e-06 0.000259572 1.36609e-23)
(6.49422e-05 0.000257828 5.89954e-26)
(0.000133639 0.000249602 5.95041e-24)
(0.000216895 0.000234461 0)
(0.000315789 0.000211999 1.01074e-23)
(0.000431378 0.000181847 -9.28371e-24)
(0.00056468 0.000143677 1.7349e-23)
(0.00071664 9.72231e-05 -7.96802e-24)
(0.000888081 4.22903e-05 -7.38276e-24)
(0.00107964 -2.12195e-05 -6.82949e-24)
(0.00129172 -9.32863e-05 -1.87296e-23)
(0.00152434 -0.000173741 2.30544e-23)
(0.00177709 -0.000262235 1.05601e-23)
(0.00204898 -0.000358205 -1.59115e-25)
(0.00233828 -0.000460839 -7.6489e-26)
(0.00264238 -0.000568992 0)
(0.00295735 -0.000681486 1.09382e-25)
(0.00327981 -0.000796168 -2.63014e-23)
(0.00359575 -0.000918481 5.73555e-24)
(0.00394983 -0.00101449 -1.0403e-23)
(-1.53313e-05 1.87388e-05 1.7326e-26)
(-4.10074e-05 5.28744e-05 1.82206e-23)