/*--------------------------------*- C++ -*----------------------------------*\
| =========                 |                                                 |
| \\      /  F ield         | foam-extend: Open Source CFD                    |
|  \\    /   O peration     | Version:     4.0                                |
|   \\  /    A nd           | Web:         http://www.foam-extend.org         |
|    \\/     M anipulation  |                                                 |
\*---------------------------------------------------------------------------*/
FoamFile
{
    version     2.0;
    format      ascii;
    class       volScalarField;
    location    "80";
    object      p;
}
// * * * * * * * * * * * * * * * * * * * * * * * * * * * * * * * * * * * * * //

dimensions      [0 2 -2 0 0 0 0];

internalField   nonuniform List<scalar> 
36000
(
-7.42506e-06
-7.4583e-06
-7.49356e-06
-7.52622e-06
-7.55674e-06
-7.58565e-06
-7.61302e-06
-7.63876e-06
-7.66287e-06
-7.68533e-06
-7.7062e-06
-7.72553e-06
-7.74339e-06
-7.75984e-06
-7.77497e-06
-7.78885e-06
-7.80152e-06
-7.81301e-06
-7.82329e-06
-7.8323e-06
-7.83991e-06
-7.8459e-06
-7.84995e-06
-7.85163e-06
-7.85034e-06
-7.84536e-06
-7.83574e-06
-7.82034e-06
-7.79754e-06
-7.76544e-06
-7.43515e-06
-7.46796e-06
-7.50277e-06
-7.53503e-06
-7.56517e-06
-7.59373e-06
-7.62078e-06
-7.64622e-06
-7.67005e-06
-7.69227e-06
-7.71291e-06
-7.73203e-06
-7.7497e-06
-7.76598e-06
-7.78097e-06
-7.79473e-06
-7.80731e-06
-7.81872e-06
-7.82896e-06
-7.83795e-06
-7.84557e-06
-7.8516e-06
-7.85574e-06
-7.85753e-06
-7.85642e-06
-7.85165e-06
-7.84234e-06
-7.82737e-06
-7.80491e-06
-7.77192e-06
-7.45514e-06
-7.48711e-06
-7.52103e-06
-7.55248e-06
-7.58188e-06
-7.60976e-06
-7.63616e-06
-7.66102e-06
-7.68429e-06
-7.70601e-06
-7.72619e-06
-7.7449e-06
-7.76219e-06
-7.77815e-06
-7.79286e-06
-7.80637e-06
-7.81875e-06
-7.83001e-06
-7.84014e-06
-7.84909e-06
-7.85672e-06
-7.86283e-06
-7.86711e-06
-7.86914e-06
-7.86835e-06
-7.86401e-06
-7.85526e-06
-7.84112e-06
-7.81934e-06
-7.78458e-06
-7.4847e-06
-7.51542e-06
-7.54804e-06
-7.57831e-06
-7.60662e-06
-7.63348e-06
-7.65893e-06
-7.68291e-06
-7.70537e-06
-7.72634e-06
-7.74584e-06
-7.76392e-06
-7.78066e-06
-7.79612e-06
-7.81039e-06
-7.82353e-06
-7.83559e-06
-7.84661e-06
-7.85658e-06
-7.86543e-06
-7.87306e-06
-7.87926e-06
-7.88373e-06
-7.88607e-06
-7.88572e-06
-7.88197e-06
-7.87403e-06
-7.86103e-06
-7.84027e-06
-7.80288e-06
-7.52333e-06
-7.55244e-06
-7.58338e-06
-7.61211e-06
-7.639e-06
-7.66454e-06
-7.68875e-06
-7.71157e-06
-7.73296e-06
-7.75294e-06
-7.77153e-06
-7.78879e-06
-7.80477e-06
-7.81956e-06
-7.83324e-06
-7.84586e-06
-7.85749e-06
-7.86816e-06
-7.87787e-06
-7.88657e-06
-7.89415e-06
-7.90042e-06
-7.9051e-06
-7.90779e-06
-7.90796e-06
-7.90491e-06
-7.89793e-06
-7.88633e-06
-7.86695e-06
-7.82598e-06
-7.5704e-06
-7.59758e-06
-7.62648e-06
-7.65336e-06
-7.67854e-06
-7.70247e-06
-7.72517e-06
-7.74657e-06
-7.76665e-06
-7.78541e-06
-7.80288e-06
-7.8191e-06
-7.83415e-06
-7.84808e-06
-7.86099e-06
-7.87295e-06
-7.884e-06
-7.8942e-06
-7.90354e-06
-7.91199e-06
-7.91945e-06
-7.92574e-06
-7.93059e-06
-7.93362e-06
-7.93433e-06
-7.93203e-06
-7.92612e-06
-7.91612e-06
-7.89852e-06
-7.85265e-06
-7.62518e-06
-7.65014e-06
-7.67672e-06
-7.70145e-06
-7.72466e-06
-7.74673e-06
-7.76767e-06
-7.78743e-06
-7.80597e-06
-7.82329e-06
-7.83942e-06
-7.8544e-06
-7.86831e-06
-7.88121e-06
-7.89318e-06
-7.90429e-06
-7.91462e-06
-7.92419e-06
-7.93303e-06
-7.94111e-06
-7.94833e-06
-7.95454e-06
-7.95947e-06
-7.96279e-06
-7.96399e-06
-7.96243e-06
-7.95761e-06
-7.94927e-06
-7.93388e-06
-7.88155e-06
-7.68684e-06
-7.70936e-06
-7.73336e-06
-7.75572e-06
-7.77673e-06
-7.79671e-06
-7.81569e-06
-7.83358e-06
-7.85037e-06
-7.86604e-06
-7.88063e-06
-7.89419e-06
-7.90676e-06
-7.91843e-06
-7.92927e-06
-7.93936e-06
-7.94877e-06
-7.95756e-06
-7.96573e-06
-7.97327e-06
-7.98011e-06
-7.98608e-06
-7.99098e-06
-7.99445e-06
-7.99605e-06
-7.99515e-06
-7.99136e-06
-7.98457e-06
-7.97173e-06
-7.91114e-06
-7.75451e-06
-7.77441e-06
-7.79564e-06
-7.81545e-06
-7.83407e-06
-7.85179e-06
-7.8686e-06
-7.88444e-06
-7.89929e-06
-7.91313e-06
-7.92599e-06
-7.93791e-06
-7.94896e-06
-7.9592e-06
-7.96871e-06
-7.97759e-06
-7.98589e-06
-7.99369e-06
-8.001e-06
-8.00782e-06
-8.01407e-06
-8.01964e-06
-8.0243e-06
-8.02776e-06
-8.02961e-06
-8.02922e-06
-8.02629e-06
-8.0208e-06
-8.01109e-06
-7.93894e-06
-7.82729e-06
-7.84445e-06
-7.86278e-06
-7.8799e-06
-7.89599e-06
-7.91129e-06
-7.92579e-06
-7.93942e-06
-7.95215e-06
-7.96398e-06
-7.97493e-06
-7.98503e-06
-7.99436e-06
-8.00297e-06
-8.01096e-06
-8.01841e-06
-8.0254e-06
-8.03199e-06
-8.03822e-06
-8.04409e-06
-8.04954e-06
-8.05446e-06
-8.05868e-06
-8.06192e-06
-8.06378e-06
-8.06363e-06
-8.06119e-06
-8.05667e-06
-8.05206e-06
-7.96086e-06
-7.9043e-06
-7.91866e-06
-7.93401e-06
-7.94834e-06
-7.96181e-06
-7.97458e-06
-7.98664e-06
-7.99792e-06
-8.0084e-06
-8.01806e-06
-8.02692e-06
-8.03503e-06
-8.04244e-06
-8.04922e-06
-8.05548e-06
-8.06129e-06
-8.06674e-06
-8.07189e-06
-8.0768e-06
-8.08146e-06
-8.08585e-06
-8.08988e-06
-8.09338e-06
-8.09611e-06
-8.09769e-06
-8.09747e-06
-8.09491e-06
-8.09007e-06
-8.09587e-06
-7.97449e-06
-7.98467e-06
-7.99622e-06
-8.00857e-06
-8.02008e-06
-8.03086e-06
-8.04103e-06
-8.05056e-06
-8.05939e-06
-8.06749e-06
-8.07484e-06
-8.08147e-06
-8.0874e-06
-8.09271e-06
-8.09747e-06
-8.10179e-06
-8.10574e-06
-8.10941e-06
-8.11287e-06
-8.11619e-06
-8.11938e-06
-8.12242e-06
-8.12524e-06
-8.12771e-06
-8.12961e-06
-8.13061e-06
-8.13005e-06
-8.12695e-06
-8.11881e-06
-8.13859e-06
-7.99589e-06
-8.06763e-06
-8.07642e-06
-8.08578e-06
-8.09448e-06
-8.10255e-06
-8.11008e-06
-8.11702e-06
-8.12331e-06
-8.12893e-06
-8.13386e-06
-8.13809e-06
-8.1417e-06
-8.14474e-06
-8.1473e-06
-8.14947e-06
-8.15133e-06
-8.15297e-06
-8.15447e-06
-8.15591e-06
-8.15732e-06
-8.1587e-06
-8.16002e-06
-8.16117e-06
-8.16194e-06
-8.162e-06
-8.16074e-06
-8.15773e-06
-8.15233e-06
-8.16094e-06
-8.02868e-06
-8.15249e-06
-8.15859e-06
-8.16505e-06
-8.17097e-06
-8.17635e-06
-8.18122e-06
-8.18554e-06
-8.18924e-06
-8.19229e-06
-8.19468e-06
-8.19641e-06
-8.19755e-06
-8.19818e-06
-8.19835e-06
-8.19815e-06
-8.19767e-06
-8.19702e-06
-8.19628e-06
-8.19555e-06
-8.19489e-06
-8.19434e-06
-8.19387e-06
-8.19338e-06
-8.19269e-06
-8.19148e-06
-8.18919e-06
-8.1858e-06
-8.18116e-06
-8.18298e-06
-8.05467e-06
-8.23866e-06
-8.24218e-06
-8.24584e-06
-8.24906e-06
-8.25181e-06
-8.25405e-06
-8.25573e-06
-8.25679e-06
-8.25722e-06
-8.25699e-06
-8.25613e-06
-8.2547e-06
-8.25274e-06
-8.25032e-06
-8.24752e-06
-8.24445e-06
-8.24124e-06
-8.23801e-06
-8.23486e-06
-8.23187e-06
-8.2291e-06
-8.22653e-06
-8.2241e-06
-8.22164e-06
-8.21885e-06
-8.21518e-06
-8.21082e-06
-8.20572e-06
-8.20458e-06
-8.07293e-06
-8.32566e-06
-8.32676e-06
-8.32775e-06
-8.32838e-06
-8.32857e-06
-8.32823e-06
-8.32731e-06
-8.32574e-06
-8.32349e-06
-8.32058e-06
-8.31705e-06
-8.31289e-06
-8.30814e-06
-8.3029e-06
-8.29729e-06
-8.29145e-06
-8.28549e-06
-8.27953e-06
-8.27371e-06
-8.26813e-06
-8.26286e-06
-8.25791e-06
-8.25324e-06
-8.2487e-06
-8.24401e-06
-8.23866e-06
-8.23293e-06
-8.22683e-06
-8.22384e-06
-8.085e-06
-8.41313e-06
-8.41197e-06
-8.41045e-06
-8.40861e-06
-8.40631e-06
-8.40346e-06
-8.39997e-06
-8.39578e-06
-8.39087e-06
-8.38523e-06
-8.37886e-06
-8.37181e-06
-8.36416e-06
-8.356e-06
-8.34745e-06
-8.33865e-06
-8.32972e-06
-8.32082e-06
-8.31209e-06
-8.30366e-06
-8.29562e-06
-8.28802e-06
-8.28083e-06
-8.27394e-06
-8.26708e-06
-8.25975e-06
-8.25233e-06
-8.24484e-06
-8.24034e-06
-8.09172e-06
-8.5009e-06
-8.49764e-06
-8.49379e-06
-8.4896e-06
-8.48492e-06
-8.4796e-06
-8.47357e-06
-8.46676e-06
-8.45915e-06
-8.45072e-06
-8.44149e-06
-8.43151e-06
-8.42086e-06
-8.40965e-06
-8.398e-06
-8.38606e-06
-8.37397e-06
-8.36191e-06
-8.35006e-06
-8.33855e-06
-8.32751e-06
-8.31701e-06
-8.30707e-06
-8.29758e-06
-8.28829e-06
-8.27873e-06
-8.26935e-06
-8.26012e-06
-8.25432e-06
-8.09364e-06
-8.58891e-06
-8.58374e-06
-8.57771e-06
-8.57131e-06
-8.56435e-06
-8.55665e-06
-8.54812e-06
-8.53871e-06
-8.52839e-06
-8.51715e-06
-8.50501e-06
-8.49202e-06
-8.47828e-06
-8.4639e-06
-8.44901e-06
-8.43377e-06
-8.41835e-06
-8.40297e-06
-8.3878e-06
-8.37301e-06
-8.35877e-06
-8.34518e-06
-8.33226e-06
-8.31996e-06
-8.30804e-06
-8.29603e-06
-8.28445e-06
-8.2732e-06
-8.26623e-06
-8.09129e-06
-8.67723e-06
-8.67031e-06
-8.66227e-06
-8.65379e-06
-8.64465e-06
-8.63465e-06
-8.62368e-06
-8.6117e-06
-8.59867e-06
-8.5846e-06
-8.5695e-06
-8.55345e-06
-8.53654e-06
-8.51888e-06
-8.50063e-06
-8.48196e-06
-8.46308e-06
-8.44422e-06
-8.42557e-06
-8.40735e-06
-8.38974e-06
-8.37288e-06
-8.35682e-06
-8.34154e-06
-8.32682e-06
-8.31217e-06
-8.29819e-06
-8.28467e-06
-8.27661e-06
-8.0852e-06
-8.76609e-06
-8.75756e-06
-8.74765e-06
-8.73721e-06
-8.72599e-06
-8.71374e-06
-8.70038e-06
-8.68585e-06
-8.67013e-06
-8.65321e-06
-8.63513e-06
-8.61596e-06
-8.59581e-06
-8.57479e-06
-8.55308e-06
-8.53089e-06
-8.50844e-06
-8.48597e-06
-8.46373e-06
-8.44194e-06
-8.42084e-06
-8.40057e-06
-8.38124e-06
-8.36285e-06
-8.34518e-06
-8.32774e-06
-8.31117e-06
-8.29517e-06
-8.28606e-06
-8.07597e-06
-8.85577e-06
-8.84577e-06
-8.83411e-06
-8.8218e-06
-8.80857e-06
-8.79415e-06
-8.77843e-06
-8.76138e-06
-8.74297e-06
-8.72319e-06
-8.70211e-06
-8.67979e-06
-8.65634e-06
-8.6319e-06
-8.60667e-06
-8.58087e-06
-8.55476e-06
-8.5286e-06
-8.50267e-06
-8.47723e-06
-8.45252e-06
-8.42876e-06
-8.40607e-06
-8.38445e-06
-8.36371e-06
-8.34332e-06
-8.324e-06
-8.30528e-06
-8.29515e-06
-8.06426e-06
-8.9467e-06
-8.93531e-06
-8.922e-06
-8.90789e-06
-8.8927e-06
-8.87615e-06
-8.85811e-06
-8.83855e-06
-8.81745e-06
-8.79482e-06
-8.77071e-06
-8.7452e-06
-8.71841e-06
-8.69051e-06
-8.66171e-06
-8.63226e-06
-8.60243e-06
-8.57253e-06
-8.54284e-06
-8.51368e-06
-8.48533e-06
-8.45801e-06
-8.43188e-06
-8.40694e-06
-8.383e-06
-8.3595e-06
-8.33722e-06
-8.31553e-06
-8.3043e-06
-8.05082e-06
-9.03932e-06
-9.02662e-06
-9.0117e-06
-8.99585e-06
-8.97875e-06
-8.96008e-06
-8.93973e-06
-8.91767e-06
-8.89388e-06
-8.86839e-06
-8.84124e-06
-8.81252e-06
-8.78236e-06
-8.75098e-06
-8.71858e-06
-8.68545e-06
-8.65187e-06
-8.61819e-06
-8.58472e-06
-8.55182e-06
-8.51979e-06
-8.48887e-06
-8.45922e-06
-8.43086e-06
-8.4036e-06
-8.37682e-06
-8.35134e-06
-8.32634e-06
-8.31369e-06
-8.03648e-06
-9.13418e-06
-9.12017e-06
-9.10368e-06
-9.0861e-06
-9.06709e-06
-9.04631e-06
-9.02366e-06
-8.99909e-06
-8.97261e-06
-8.94424e-06
-8.91403e-06
-8.88208e-06
-8.84856e-06
-8.81367e-06
-8.77767e-06
-8.74084e-06
-8.70351e-06
-8.66604e-06
-8.6288e-06
-8.59215e-06
-8.55641e-06
-8.52184e-06
-8.48861e-06
-8.45674e-06
-8.42601e-06
-8.39573e-06
-8.36672e-06
-8.33798e-06
-8.32322e-06
-8.02245e-06
-9.2318e-06
-9.21648e-06
-9.19841e-06
-9.17908e-06
-9.15814e-06
-9.13524e-06
-9.11026e-06
-9.08318e-06
-9.05399e-06
-9.02272e-06
-8.98943e-06
-8.95425e-06
-8.91736e-06
-8.87897e-06
-8.83936e-06
-8.79884e-06
-8.75778e-06
-8.71655e-06
-8.67554e-06
-8.63513e-06
-8.59566e-06
-8.5574e-06
-8.52053e-06
-8.48505e-06
-8.45067e-06
-8.41663e-06
-8.38364e-06
-8.35062e-06
-8.33243e-06
-8.01057e-06
-9.33275e-06
-9.31607e-06
-9.29636e-06
-9.27524e-06
-9.25234e-06
-9.22727e-06
-9.19993e-06
-9.1703e-06
-9.13838e-06
-9.10418e-06
-9.06781e-06
-9.02939e-06
-8.98912e-06
-8.94724e-06
-8.90404e-06
-8.85987e-06
-8.8151e-06
-8.77013e-06
-8.72537e-06
-8.6812e-06
-8.63799e-06
-8.596e-06
-8.55542e-06
-8.51618e-06
-8.47795e-06
-8.43982e-06
-8.40231e-06
-8.36423e-06
-8.3394e-06
-8.00196e-06
-9.43755e-06
-9.41944e-06
-9.398e-06
-9.37502e-06
-9.35008e-06
-9.32279e-06
-9.29304e-06
-9.26082e-06
-9.22611e-06
-9.18897e-06
-9.1495e-06
-9.10784e-06
-9.06421e-06
-9.01885e-06
-8.97209e-06
-8.92429e-06
-8.87584e-06
-8.82716e-06
-8.77865e-06
-8.73073e-06
-8.68376e-06
-8.63801e-06
-8.59362e-06
-8.55048e-06
-8.50815e-06
-8.4656e-06
-8.42284e-06
-8.37804e-06
-8.33669e-06
-7.98983e-06
-9.54671e-06
-9.52704e-06
-9.50377e-06
-9.47881e-06
-9.45175e-06
-9.42217e-06
-9.38994e-06
-9.35506e-06
-9.31754e-06
-9.27743e-06
-9.23484e-06
-9.18993e-06
-9.14294e-06
-9.09413e-06
-9.04385e-06
-8.99245e-06
-8.94034e-06
-8.88796e-06
-8.83573e-06
-8.78406e-06
-8.7333e-06
-8.68372e-06
-8.6354e-06
-8.58821e-06
-8.54159e-06
-8.49442e-06
-8.44564e-06
-8.39119e-06
-8.31296e-06
-7.96886e-06
-9.66066e-06
-9.6393e-06
-9.61405e-06
-9.587e-06
-9.55771e-06
-9.52573e-06
-9.49095e-06
-9.45335e-06
-9.41295e-06
-9.36983e-06
-9.32411e-06
-9.27596e-06
-9.22562e-06
-9.17338e-06
-9.11958e-06
-9.0646e-06
-9.00887e-06
-8.95281e-06
-8.89686e-06
-8.84142e-06
-8.78683e-06
-8.73332e-06
-8.68096e-06
-8.62959e-06
-8.57864e-06
-8.52719e-06
-8.47268e-06
-8.40936e-06
-8.2897e-06
-8.05864e-06
-9.77978e-06
-9.75658e-06
-9.72918e-06
-9.6999e-06
-9.66825e-06
-9.63378e-06
-9.59634e-06
-9.55594e-06
-9.51262e-06
-9.46645e-06
-9.41758e-06
-9.36617e-06
-9.31249e-06
-9.25682e-06
-9.19953e-06
-9.14099e-06
-9.08165e-06
-9.02192e-06
-8.96224e-06
-8.90298e-06
-8.84447e-06
-8.7869e-06
-8.73032e-06
-8.67461e-06
-8.6194e-06
-8.56442e-06
-8.50727e-06
-8.44922e-06
-8.35571e-06
-8.61084e-06
-9.90437e-06
-9.87914e-06
-9.84942e-06
-9.81775e-06
-9.78362e-06
-9.74652e-06
-9.70633e-06
-9.66306e-06
-9.61675e-06
-9.5675e-06
-9.51544e-06
-9.46077e-06
-9.40373e-06
-9.34465e-06
-9.28387e-06
-9.22179e-06
-9.15884e-06
-9.09543e-06
-9.03196e-06
-8.9688e-06
-8.90622e-06
-8.84437e-06
-8.78326e-06
-8.72275e-06
-8.66256e-06
-8.60273e-06
-8.54126e-06
-8.48453e-06
-8.40497e-06
-8.72141e-06
-1.00346e-05
-1.00072e-05
-9.97497e-06
-9.94075e-06
-9.90399e-06
-9.86414e-06
-9.8211e-06
-9.77487e-06
-9.72552e-06
-9.67313e-06
-9.61784e-06
-9.55988e-06
-9.49949e-06
-9.43698e-06
-9.37273e-06
-9.3071e-06
-9.24052e-06
-9.17339e-06
-9.10607e-06
-9.03887e-06
-8.97201e-06
-8.90557e-06
-8.83949e-06
-8.77355e-06
-8.70736e-06
-8.64104e-06
-8.57242e-06
-8.50867e-06
-8.41588e-06
-8.67231e-06
-1.01707e-05
-1.01408e-05
-1.01059e-05
-1.0069e-05
-1.00295e-05
-9.98674e-06
-9.94074e-06
-9.89147e-06
-9.839e-06
-9.78342e-06
-9.72488e-06
-9.6636e-06
-9.59984e-06
-9.53391e-06
-9.46616e-06
-9.39697e-06
-9.32672e-06
-9.25579e-06
-9.18448e-06
-9.11306e-06
-9.04165e-06
-8.97024e-06
-8.89866e-06
-8.82653e-06
-8.75338e-06
-8.679e-06
-8.60087e-06
-8.52528e-06
-8.41419e-06
-8.61634e-06
-1.03125e-05
-1.02801e-05
-1.02423e-05
-1.02025e-05
-1.016e-05
-1.01144e-05
-1.00653e-05
-1.00129e-05
-9.95723e-06
-9.89841e-06
-9.83658e-06
-9.77196e-06
-9.70481e-06
-9.63543e-06
-9.56416e-06
-9.49136e-06
-9.41737e-06
-9.34252e-06
-9.26706e-06
-9.19117e-06
-9.11487e-06
-9.03804e-06
-8.96034e-06
-8.88127e-06
-8.80012e-06
-8.71631e-06
-8.62689e-06
-8.53703e-06
-8.40808e-06
-8.56171e-06
-1.04601e-05
-1.04249e-05
-1.03841e-05
-1.03412e-05
-1.02957e-05
-1.02469e-05
-1.01947e-05
-1.01391e-05
-1.00802e-05
-1.00181e-05
-9.95291e-06
-9.88492e-06
-9.81435e-06
-9.74149e-06
-9.66665e-06
-9.59017e-06
-9.51233e-06
-9.4334e-06
-9.35357e-06
-9.2729e-06
-9.19132e-06
-9.10854e-06
-9.02406e-06
-8.93725e-06
-8.84705e-06
-8.75258e-06
-8.65067e-06
-8.54522e-06
-8.39905e-06
-8.50632e-06
-1.06132e-05
-1.05751e-05
-1.0531e-05
-1.0485e-05
-1.04363e-05
-1.03843e-05
-1.03289e-05
-1.027e-05
-1.02078e-05
-1.01423e-05
-1.00738e-05
-1.00024e-05
-9.92834e-06
-9.85195e-06
-9.77348e-06
-9.69321e-06
-9.61138e-06
-9.52818e-06
-9.4437e-06
-9.35789e-06
-9.27055e-06
-9.18121e-06
-9.08929e-06
-8.99386e-06
-8.89367e-06
-8.78751e-06
-8.67207e-06
-8.55037e-06
-8.38756e-06
-8.45046e-06
-1.07716e-05
-1.07304e-05
-1.06829e-05
-1.06336e-05
-1.05817e-05
-1.05264e-05
-1.04676e-05
-1.04054e-05
-1.03398e-05
-1.02709e-05
-1.0199e-05
-1.01242e-05
-1.00466e-05
-9.96663e-06
-9.88443e-06
-9.80023e-06
-9.71423e-06
-9.6265e-06
-9.53703e-06
-9.44566e-06
-9.35201e-06
-9.25552e-06
-9.15537e-06
-9.05045e-06
-8.9393e-06
-8.82063e-06
-8.69087e-06
-8.55255e-06
-8.37371e-06
-8.39472e-06
-1.09349e-05
-1.08905e-05
-1.08395e-05
-1.07868e-05
-1.07314e-05
-1.06728e-05
-1.06106e-05
-1.0545e-05
-1.0476e-05
-1.04037e-05
-1.03284e-05
-1.025e-05
-1.01689e-05
-1.00852e-05
-9.99919e-06
-9.91091e-06
-9.82049e-06
-9.72793e-06
-9.63309e-06
-9.53566e-06
-9.43512e-06
-9.33079e-06
-9.2216e-06
-9.10629e-06
-8.98338e-06
-8.85129e-06
-8.70666e-06
-8.55156e-06
-8.35728e-06
-8.33899e-06
-1.11026e-05
-1.10549e-05
-1.10003e-05
-1.0944e-05
-1.08853e-05
-1.08232e-05
-1.07576e-05
-1.06885e-05
-1.06161e-05
-1.05404e-05
-1.04615e-05
-1.03796e-05
-1.02949e-05
-1.02074e-05
-1.01174e-05
-1.00248e-05
-9.92971e-06
-9.83197e-06
-9.73131e-06
-9.62725e-06
-9.51922e-06
-9.40627e-06
-9.28723e-06
-9.1607e-06
-9.02516e-06
-8.87894e-06
-8.71898e-06
-8.54703e-06
-8.3378e-06
-8.28277e-06
-1.12743e-05
-1.12232e-05
-1.11648e-05
-1.1105e-05
-1.10427e-05
-1.09772e-05
-1.09081e-05
-1.08356e-05
-1.07597e-05
-1.06805e-05
-1.05981e-05
-1.05126e-05
-1.04242e-05
-1.03328e-05
-1.02386e-05
-1.01414e-05
-1.00413e-05
-9.93801e-06
-9.831e-06
-9.71978e-06
-9.60352e-06
-9.48116e-06
-9.35141e-06
-9.21291e-06
-9.0639e-06
-8.90294e-06
-8.72727e-06
-8.53849e-06
-8.31468e-06
-8.22535e-06
-1.14492e-05
-1.13947e-05
-1.13325e-05
-1.1269e-05
-1.12033e-05
-1.11342e-05
-1.10617e-05
-1.09857e-05
-1.09063e-05
-1.08236e-05
-1.07377e-05
-1.06485e-05
-1.05562e-05
-1.04608e-05
-1.03621e-05
-1.02602e-05
-1.01547e-05
-1.00453e-05
-9.93147e-06
-9.81241e-06
-9.68717e-06
-9.55459e-06
-9.41335e-06
-9.26196e-06
-9.09882e-06
-8.92259e-06
-8.73095e-06
-8.5254e-06
-8.28731e-06
-8.1659e-06
-1.16268e-05
-1.15686e-05
-1.15027e-05
-1.14356e-05
-1.13663e-05
-1.12937e-05
-1.12177e-05
-1.11382e-05
-1.10554e-05
-1.09692e-05
-1.08796e-05
-1.07867e-05
-1.06905e-05
-1.05908e-05
-1.04875e-05
-1.03805e-05
-1.02692e-05
-1.01532e-05
-1.00319e-05
-9.90427e-06
-9.76929e-06
-9.62567e-06
-9.47211e-06
-9.30707e-06
-9.12916e-06
-8.93723e-06
-8.72941e-06
-8.50724e-06
-8.25515e-06
-8.10354e-06
-1.1806e-05
-1.17444e-05
-1.16746e-05
-1.16038e-05
-1.1531e-05
-1.1455e-05
-1.13755e-05
-1.12926e-05
-1.12063e-05
-1.11166e-05
-1.10234e-05
-1.09266e-05
-1.08263e-05
-1.07222e-05
-1.0614e-05
-1.05014e-05
-1.03839e-05
-1.02608e-05
-1.01313e-05
-9.9944e-06
-9.84886e-06
-9.69346e-06
-9.52672e-06
-9.34735e-06
-9.15412e-06
-8.94615e-06
-8.72209e-06
-8.48356e-06
-8.21787e-06
-8.03794e-06
-1.19862e-05
-1.1921e-05
-1.18473e-05
-1.1773e-05
-1.16967e-05
-1.16172e-05
-1.15344e-05
-1.14481e-05
-1.13583e-05
-1.1265e-05
-1.11681e-05
-1.10675e-05
-1.09629e-05
-1.08541e-05
-1.07406e-05
-1.06221e-05
-1.04979e-05
-1.03671e-05
-1.02288e-05
-1.00818e-05
-9.92495e-06
-9.75687e-06
-9.57625e-06
-9.38192e-06
-9.17292e-06
-8.94868e-06
-8.70841e-06
-8.45389e-06
-8.17512e-06
-7.96924e-06
-1.21662e-05
-1.20975e-05
-1.20201e-05
-1.19422e-05
-1.18624e-05
-1.17796e-05
-1.16934e-05
-1.16038e-05
-1.15106e-05
-1.14138e-05
-1.13131e-05
-1.12084e-05
-1.10994e-05
-1.09856e-05
-1.08666e-05
-1.07417e-05
-1.06102e-05
-1.04711e-05
-1.03232e-05
-1.01654e-05
-9.99646e-06
-9.81494e-06
-9.61975e-06
-9.40992e-06
-9.18477e-06
-8.94414e-06
-8.68778e-06
-8.41769e-06
-8.12627e-06
-7.89698e-06
-1.23451e-05
-1.22729e-05
-1.21918e-05
-1.21104e-05
-1.20273e-05
-1.19413e-05
-1.18518e-05
-1.17588e-05
-1.16623e-05
-1.15619e-05
-1.14574e-05
-1.13486e-05
-1.12349e-05
-1.11159e-05
-1.09909e-05
-1.08592e-05
-1.07198e-05
-1.05717e-05
-1.04135e-05
-1.02441e-05
-1.00622e-05
-9.8666e-06
-9.65624e-06
-9.43046e-06
-9.18893e-06
-8.9319e-06
-8.65965e-06
-8.37447e-06
-8.07079e-06
-7.82032e-06
-1.25216e-05
-1.2446e-05
-1.23613e-05
-1.22766e-05
-1.21903e-05
-1.21011e-05
-1.20084e-05
-1.19123e-05
-1.18123e-05
-1.17084e-05
-1.16e-05
-1.14869e-05
-1.13683e-05
-1.12438e-05
-1.11124e-05
-1.09734e-05
-1.08255e-05
-1.06676e-05
-1.04985e-05
-1.03168e-05
-1.01212e-05
-9.91082e-06
-9.68477e-06
-9.44269e-06
-9.18465e-06
-8.91132e-06
-8.62352e-06
-8.32378e-06
-8.0083e-06
-7.73882e-06
-1.26946e-05
-1.26157e-05
-1.25276e-05
-1.24396e-05
-1.23503e-05
-1.2258e-05
-1.21623e-05
-1.20629e-05
-1.19597e-05
-1.18521e-05
-1.17398e-05
-1.16222e-05
-1.14986e-05
-1.13681e-05
-1.123e-05
-1.1083e-05
-1.09261e-05
-1.07578e-05
-1.05769e-05
-1.03821e-05
-1.01723e-05
-9.94656e-06
-9.70441e-06
-9.44582e-06
-9.17125e-06
-8.88184e-06
-8.57889e-06
-8.26519e-06
-7.93846e-06
-7.65209e-06
-1.28628e-05
-1.27807e-05
-1.26892e-05
-1.25982e-05
-1.25059e-05
-1.24108e-05
-1.23121e-05
-1.22097e-05
-1.21032e-05
-1.1992e-05
-1.18756e-05
-1.17534e-05
-1.16244e-05
-1.14877e-05
-1.13423e-05
-1.11869e-05
-1.10202e-05
-1.08409e-05
-1.06475e-05
-1.0439e-05
-1.02143e-05
-9.97279e-06
-9.71425e-06
-9.43904e-06
-9.14808e-06
-8.84291e-06
-8.52532e-06
-8.19831e-06
-7.86087e-06
-7.55932e-06
-1.30246e-05
-1.29396e-05
-1.2845e-05
-1.27511e-05
-1.26561e-05
-1.25581e-05
-1.24567e-05
-1.23513e-05
-1.22415e-05
-1.21267e-05
-1.20062e-05
-1.18791e-05
-1.17445e-05
-1.16012e-05
-1.1448e-05
-1.12836e-05
-1.11066e-05
-1.09155e-05
-1.07091e-05
-1.04863e-05
-1.02462e-05
-9.98853e-06
-9.71342e-06
-9.42164e-06
-9.11452e-06
-8.79405e-06
-8.46241e-06
-8.12282e-06
-7.77535e-06
-7.46028e-06
-1.31788e-05
-1.3091e-05
-1.29935e-05
-1.28968e-05
-1.27993e-05
-1.26988e-05
-1.25947e-05
-1.24864e-05
-1.23734e-05
-1.2255e-05
-1.21302e-05
-1.1998e-05
-1.18575e-05
-1.17072e-05
-1.15457e-05
-1.13718e-05
-1.11838e-05
-1.09804e-05
-1.07604e-05
-1.05227e-05
-1.02669e-05
-9.99281e-06
-9.70111e-06
-9.39291e-06
-9.07002e-06
-8.7348e-06
-8.38983e-06
-8.0385e-06
-7.68189e-06
-7.35514e-06
-1.33237e-05
-1.32333e-05
-1.31331e-05
-1.30341e-05
-1.29342e-05
-1.28313e-05
-1.27247e-05
-1.26136e-05
-1.24975e-05
-1.23753e-05
-1.22461e-05
-1.21088e-05
-1.19619e-05
-1.18042e-05
-1.16341e-05
-1.145e-05
-1.12506e-05
-1.10343e-05
-1.08e-05
-1.05471e-05
-1.02752e-05
-9.98473e-06
-9.67652e-06
-9.35222e-06
-9.01406e-06
-8.66476e-06
-8.30724e-06
-7.94518e-06
-7.58028e-06
-7.24212e-06
-1.34579e-05
-1.33652e-05
-1.32625e-05
-1.31612e-05
-1.30592e-05
-1.29542e-05
-1.28452e-05
-1.27315e-05
-1.26122e-05
-1.24863e-05
-1.23526e-05
-1.22098e-05
-1.20564e-05
-1.18908e-05
-1.17115e-05
-1.15169e-05
-1.13054e-05
-1.10757e-05
-1.08269e-05
-1.05584e-05
-1.02704e-05
-9.96342e-06
-9.63894e-06
-9.29897e-06
-8.94615e-06
-8.58354e-06
-8.2144e-06
-7.84273e-06
-7.46998e-06
-7.11949e-06
-1.35797e-05
-1.34848e-05
-1.33801e-05
-1.32768e-05
-1.3173e-05
-1.3066e-05
-1.29548e-05
-1.28385e-05
-1.27161e-05
-1.25864e-05
-1.24481e-05
-1.22996e-05
-1.21393e-05
-1.19656e-05
-1.17766e-05
-1.15709e-05
-1.13469e-05
-1.11034e-05
-1.08397e-05
-1.05555e-05
-1.02513e-05
-9.92807e-06
-9.58769e-06
-9.23262e-06
-8.86586e-06
-8.4908e-06
-8.11105e-06
-7.73071e-06
-7.34924e-06
-6.98874e-06
-1.36874e-05
-1.35907e-05
-1.34841e-05
-1.33793e-05
-1.32738e-05
-1.3165e-05
-1.30518e-05
-1.29331e-05
-1.28076e-05
-1.26741e-05
-1.2531e-05
-1.23766e-05
-1.22091e-05
-1.20268e-05
-1.18279e-05
-1.16107e-05
-1.13738e-05
-1.11162e-05
-1.08374e-05
-1.05374e-05
-1.02171e-05
-9.87794e-06
-9.52217e-06
-9.15268e-06
-8.7728e-06
-8.38624e-06
-7.99699e-06
-7.60848e-06
-7.2186e-06
-6.85097e-06
-1.37794e-05
-1.36812e-05
-1.35731e-05
-1.34669e-05
-1.33601e-05
-1.32498e-05
-1.31347e-05
-1.30136e-05
-1.28852e-05
-1.27478e-05
-1.25997e-05
-1.24392e-05
-1.22643e-05
-1.20731e-05
-1.18638e-05
-1.16348e-05
-1.13848e-05
-1.11129e-05
-1.08189e-05
-1.05032e-05
-1.0167e-05
-9.81235e-06
-9.44182e-06
-9.05869e-06
-8.66662e-06
-8.26965e-06
-7.8719e-06
-7.47497e-06
-7.07922e-06
-6.7055e-06
-1.3854e-05
-1.37547e-05
-1.36454e-05
-1.35382e-05
-1.34302e-05
-1.33187e-05
-1.32019e-05
-1.30786e-05
-1.29472e-05
-1.28058e-05
-1.26528e-05
-1.24859e-05
-1.23033e-05
-1.2103e-05
-1.1883e-05
-1.16419e-05
-1.13785e-05
-1.10922e-05
-1.0783e-05
-1.04518e-05
-1.01003e-05
-9.73067e-06
-9.34613e-06
-8.95026e-06
-8.54704e-06
-8.14081e-06
-7.73522e-06
-7.32996e-06
-6.9311e-06
-6.55188e-06
-1.39097e-05
-1.38095e-05
-1.36994e-05
-1.35914e-05
-1.34827e-05
-1.33701e-05
-1.32518e-05
-1.31264e-05
-1.2992e-05
-1.28467e-05
-1.26885e-05
-1.25152e-05
-1.23246e-05
-1.21148e-05
-1.1884e-05
-1.16306e-05
-1.13537e-05
-1.1053e-05
-1.07289e-05
-1.03826e-05
-1.00162e-05
-9.63235e-06
-9.23467e-06
-8.82706e-06
-8.41381e-06
-7.99939e-06
-7.58593e-06
-7.17464e-06
-6.77395e-06
-6.38948e-06
-1.39446e-05
-1.38439e-05
-1.37334e-05
-1.3625e-05
-1.35158e-05
-1.34024e-05
-1.32828e-05
-1.31554e-05
-1.30181e-05
-1.28688e-05
-1.27053e-05
-1.25254e-05
-1.23268e-05
-1.21074e-05
-1.18655e-05
-1.15997e-05
-1.13094e-05
-1.09945e-05
-1.06557e-05
-1.02948e-05
-9.9141e-06
-9.51692e-06
-9.10707e-06
-8.68881e-06
-8.26673e-06
-7.84492e-06
-7.42383e-06
-7.00929e-06
-6.60733e-06
-6.21812e-06
-7.72303e-06
-7.65824e-06
-7.57996e-06
-7.48053e-06
-7.35739e-06
-7.20767e-06
-7.02853e-06
-6.81693e-06
-6.56963e-06
-6.28448e-06
-5.96005e-06
-5.59597e-06
-5.1932e-06
-4.7543e-06
-4.28352e-06
-3.78689e-06
-3.27225e-06
-2.74835e-06
-2.22594e-06
-1.71584e-06
-1.22893e-06
-7.74942e-07
-3.6221e-07
2.07494e-09
3.12965e-07
5.67943e-07
7.66799e-07
9.11485e-07
1.00584e-06
1.05518e-06
1.06586e-06
1.04482e-06
9.99169e-07
9.35845e-07
8.61234e-07
7.80926e-07
6.99466e-07
6.20277e-07
5.4566e-07
4.7696e-07
4.14759e-07
3.59138e-07
3.0982e-07
2.66388e-07
2.28271e-07
1.94971e-07
1.65862e-07
1.40577e-07
1.18494e-07
9.94414e-08
8.27324e-08
6.85506e-08
5.58998e-08
4.54825e-08
3.57242e-08
2.81933e-08
2.02041e-08
1.53663e-08
7.07683e-09
7.91097e-09
-7.73267e-06
-7.6664e-06
-7.58861e-06
-7.48947e-06
-7.36706e-06
-7.21744e-06
-7.03859e-06
-6.82738e-06
-6.58052e-06
-6.29576e-06
-5.97166e-06
-5.60783e-06
-5.20522e-06
-4.76636e-06
-4.29552e-06
-3.7987e-06
-3.28377e-06
-2.75938e-06
-2.23649e-06
-1.72581e-06
-1.23824e-06
-7.83548e-07
-3.70078e-07
-5.04707e-09
3.06588e-07
5.62304e-07
7.61872e-07
9.0723e-07
1.00223e-06
1.05216e-06
1.06338e-06
1.04281e-06
9.97597e-07
9.34613e-07
8.60302e-07
7.80236e-07
6.98952e-07
6.19899e-07
5.45392e-07
4.76764e-07
4.14617e-07
3.59044e-07
3.09743e-07
2.66341e-07
2.28227e-07
1.94937e-07
1.65837e-07
1.40555e-07
1.18478e-07
9.94281e-08
8.27167e-08
6.85382e-08
5.58927e-08
4.54779e-08
3.57189e-08
2.81883e-08
2.02021e-08
1.53645e-08
7.07235e-09
7.89955e-09
-7.75163e-06
-7.68239e-06
-7.60559e-06
-7.50701e-06
-7.38554e-06
-7.23682e-06
-7.05861e-06
-6.84812e-06
-6.60205e-06
-6.31805e-06
-5.99459e-06
-5.63126e-06
-5.22897e-06
-4.79021e-06
-4.31925e-06
-3.82208e-06
-3.30662e-06
-2.78127e-06
-2.25745e-06
-1.74562e-06
-1.25677e-06
-8.00678e-07
-3.85754e-07
-1.92467e-08
2.93873e-07
5.51048e-07
7.5203e-07
8.98739e-07
9.95005e-07
1.04612e-06
1.05841e-06
1.03881e-06
9.94429e-07
9.32163e-07
8.58437e-07
7.7884e-07
6.97924e-07
6.19151e-07
5.4485e-07
4.76374e-07
4.14336e-07
3.5884e-07
3.09594e-07
2.66229e-07
2.28143e-07
1.94872e-07
1.65786e-07
1.40514e-07
1.18444e-07
9.94007e-08
8.26948e-08
6.85196e-08
5.58774e-08
4.54643e-08
3.5709e-08
2.81794e-08
2.01968e-08
1.53579e-08
7.07273e-09
7.89235e-09
-7.7792e-06
-7.70548e-06
-7.63025e-06
-7.53252e-06
-7.41229e-06
-7.26495e-06
-7.08794e-06
-6.87857e-06
-6.63367e-06
-6.35077e-06
-6.02827e-06
-5.6657e-06
-5.2639e-06
-4.82533e-06
-4.35422e-06
-3.85657e-06
-3.34016e-06
-2.8138e-06
-2.28849e-06
-1.77497e-06
-1.28423e-06
-8.26101e-07
-4.09041e-07
-4.03574e-08
2.74954e-07
5.34288e-07
7.37366e-07
8.86077e-07
9.8423e-07
1.03709e-06
1.05099e-06
1.03282e-06
9.89693e-07
9.28494e-07
8.55645e-07
7.76751e-07
6.96384e-07
6.18029e-07
5.44038e-07
4.7579e-07
4.13915e-07
3.58534e-07
3.09371e-07
2.66062e-07
2.28018e-07
1.94775e-07
1.65709e-07
1.40452e-07
1.18393e-07
9.93595e-08
8.26616e-08
6.84915e-08
5.58543e-08
4.54441e-08
3.56941e-08
2.81661e-08
2.01887e-08
1.53481e-08
7.073e-09
7.88104e-09
-7.8143e-06
-7.73466e-06
-7.66167e-06
-7.56508e-06
-7.44647e-06
-7.30087e-06
-7.1256e-06
-6.91784e-06
-6.67452e-06
-6.39311e-06
-6.07193e-06
-5.7104e-06
-5.30931e-06
-4.87104e-06
-4.39981e-06
-3.90159e-06
-3.38405e-06
-2.85632e-06
-2.32915e-06
-1.81347e-06
-1.3203e-06
-8.59527e-07
-4.3969e-07
-6.8169e-08
2.50007e-07
5.12172e-07
7.17998e-07
8.69341e-07
9.69977e-07
1.02515e-06
1.04116e-06
1.02488e-06
9.8341e-07
9.23622e-07
8.51935e-07
7.73974e-07
6.94337e-07
6.16536e-07
5.42958e-07
4.75013e-07
4.13355e-07
3.58128e-07
3.09074e-07
2.6584e-07
2.2785e-07
1.94645e-07
1.65607e-07
1.4037e-07
1.18325e-07
9.93046e-08
8.2617e-08
6.84538e-08
5.58234e-08
4.54173e-08
3.5674e-08
2.81484e-08
2.0178e-08
1.5335e-08
7.07317e-09
7.86565e-09
-7.85562e-06
-7.76871e-06
-7.69869e-06
-7.60355e-06
-7.48695e-06
-7.34346e-06
-7.17042e-06
-6.96479e-06
-6.72352e-06
-6.44403e-06
-6.12454e-06
-5.76439e-06
-5.36427e-06
-4.92648e-06
-4.45522e-06
-3.95638e-06
-3.43764e-06
-2.90826e-06
-2.37893e-06
-1.86067e-06
-1.36459e-06
-9.00613e-07
-4.7741e-07
-1.02432e-07
2.19244e-07
4.84874e-07
6.94073e-07
8.48649e-07
9.52341e-07
1.01036e-06
1.02897e-06
1.01503e-06
9.75606e-07
9.17564e-07
8.47319e-07
7.70517e-07
6.91785e-07
6.14676e-07
5.41611e-07
4.74043e-07
4.12656e-07
3.57621e-07
3.08703e-07
2.65564e-07
2.27641e-07
1.94483e-07
1.6548e-07
1.40268e-07
1.18242e-07
9.9236e-08
8.2561e-08
6.84065e-08
5.57847e-08
4.53839e-08
3.56489e-08
2.81264e-08
2.01646e-08
1.53187e-08
7.07324e-09
7.84618e-09
-7.9019e-06
-7.80617e-06
-7.74003e-06
-7.64663e-06
-7.5324e-06
-7.39143e-06
-7.22109e-06
-7.0181e-06
-6.77938e-06
-6.50227e-06
-6.18492e-06
-5.82653e-06
-5.42771e-06
-4.99066e-06
-4.51952e-06
-4.02007e-06
-3.50015e-06
-2.96895e-06
-2.43721e-06
-1.91603e-06
-1.41661e-06
-9.48959e-07
-5.21859e-07
-1.42857e-07
1.82908e-07
4.52598e-07
6.65758e-07
8.24138e-07
9.3143e-07
9.92805e-07
1.0145e-06
1.00332e-06
9.66314e-07
9.10343e-07
8.41811e-07
7.66388e-07
6.88736e-07
6.12451e-07
5.4e-07
4.72883e-07
4.11819e-07
3.57015e-07
3.08258e-07
2.65232e-07
2.2739e-07
1.94289e-07
1.65327e-07
1.40145e-07
1.18142e-07
9.91537e-08
8.24937e-08
6.83498e-08
5.57383e-08
4.5344e-08
3.56187e-08
2.81e-08
2.01484e-08
1.52992e-08
7.07321e-09
7.82266e-09
-7.95216e-06
-7.84538e-06
-7.78427e-06
-7.69288e-06
-7.5814e-06
-7.44339e-06
-7.27619e-06
-7.07635e-06
-6.84069e-06
-6.56647e-06
-6.25173e-06
-5.89555e-06
-5.49843e-06
-5.06241e-06
-4.59159e-06
-4.09178e-06
-3.57068e-06
-3.0376e-06
-2.50329e-06
-1.97895e-06
-1.47585e-06
-1.00411e-06
-5.72655e-07
-1.8912e-07
1.41271e-07
4.15573e-07
6.33243e-07
7.95964e-07
9.0737e-07
9.72585e-07
9.97799e-07
9.89796e-07
9.55574e-07
9.01985e-07
8.35429e-07
7.61599e-07
6.85197e-07
6.09865e-07
5.38127e-07
4.71533e-07
4.10845e-07
3.56309e-07
3.07741e-07
2.64847e-07
2.27098e-07
1.94063e-07
1.65149e-07
1.40001e-07
1.18016e-07
9.90579e-08
8.24151e-08
6.82835e-08
5.56842e-08
4.52975e-08
3.55834e-08
2.80693e-08
2.01296e-08
1.52765e-08
7.07308e-09
7.79508e-09
-8.00629e-06
-7.88422e-06
-7.83006e-06