/*--------------------------------*- C++ -*----------------------------------*\
| =========                 |                                                 |
| \\      /  F ield         | foam-extend: Open Source CFD                    |
|  \\    /   O peration     | Version:     4.0                                |
|   \\  /    A nd           | Web:         http://www.foam-extend.org         |
|    \\/     M anipulation  |                                                 |
\*---------------------------------------------------------------------------*/
FoamFile
{
    version     2.0;
    format      ascii;
    class       surfaceScalarField;
    location    "80";
    object      phi;
}
// * * * * * * * * * * * * * * * * * * * * * * * * * * * * * * * * * * * * * //

dimensions      [0 3 -1 0 0 0 0];

internalField   nonuniform List<scalar> 
71520
(
-1.60656e-10
1.60275e-10
3.80985e-13
-6.48516e-10
4.86631e-10
1.2288e-12
-1.48942e-09
8.38677e-10
2.22475e-12
-2.70972e-09
1.21691e-09
3.38814e-12
-4.33618e-09
1.62172e-09
4.73994e-12
-6.39582e-09
2.05334e-09
6.30295e-12
-8.91588e-09
2.51196e-09
8.10165e-12
-1.19237e-08
2.99762e-09
1.01622e-11
-1.54465e-08
3.5103e-09
1.25122e-11
-1.95115e-08
4.04986e-09
1.5181e-11
-2.41458e-08
4.61605e-09
1.81991e-11
-2.93759e-08
5.20852e-09
2.15982e-11
-3.52281e-08
5.82682e-09
2.54111e-11
-4.17281e-08
6.47035e-09
2.96715e-11
-4.89009e-08
7.13837e-09
3.44136e-11
-5.67705e-08
7.82993e-09
3.96726e-11
-6.53599e-08
8.54386e-09
4.5485e-11
-7.46904e-08
9.27869e-09
5.18882e-11
-8.47818e-08
1.00325e-08
5.8921e-11
-9.56511e-08
1.08026e-08
6.66237e-11
-1.07312e-07
1.15857e-08
7.5038e-11
-1.19773e-07
1.2377e-08
8.42067e-11
-1.33037e-07
1.31701e-08
9.41717e-11
-1.47099e-07
1.39563e-08
1.04972e-10
-1.61939e-07
1.4724e-08
1.16641e-10
-1.77526e-07
1.54578e-08
1.292e-10
-1.93806e-07
1.61375e-08
1.42651e-10
-2.107e-07
1.67363e-08
1.56967e-10
-2.28086e-07
1.72144e-08
1.72077e-10
1.75151e-08
-2.45789e-07
1.87845e-10
-1.58533e-10
3.18808e-10
-6.40033e-10
9.68131e-10
-1.47009e-09
1.66873e-09
-2.67478e-09
2.42161e-09
-4.28057e-09
3.22751e-09
-6.31418e-09
4.08695e-09
-8.80248e-09
5.00025e-09
-1.17724e-08
5.96753e-09
-1.52508e-08
6.98868e-09
-1.92643e-08
8.06339e-09
-2.38394e-08
9.19113e-09
-2.9002e-08
1.03711e-08
-3.47776e-08
1.16024e-08
-4.11909e-08
1.28837e-08
-4.82658e-08
1.42133e-08
-5.60251e-08
1.55892e-08
-6.44903e-08
1.7009e-08
-7.36811e-08
1.84695e-08
-8.3615e-08
1.99664e-08
-9.43068e-08
2.14944e-08
-1.05767e-07
2.30462e-08
-1.18002e-07
2.46119e-08
-1.31011e-07
2.61784e-08
-1.44782e-07
2.77277e-08
-1.59294e-07
2.92359e-08
-1.74507e-07
3.06715e-08
-1.90363e-07
3.19935e-08
-2.06774e-07
3.31473e-08
-2.23613e-07
3.40534e-08
3.45977e-08
-2.40696e-07
-1.54341e-10
4.73149e-10
-6.2328e-10
1.43707e-09
-1.43189e-09
2.47734e-09
-2.60571e-09
3.59543e-09
-4.17063e-09
4.79242e-09
-6.15273e-09
6.06905e-09
-8.57817e-09
7.4257e-09
-1.14731e-08
8.86246e-09
-1.48635e-08
1.03791e-08
-1.8775e-08
1.19749e-08
-2.32328e-08
1.3649e-08
-2.82617e-08
1.54e-08
-3.38853e-08
1.72261e-08
-4.01267e-08
1.91251e-08
-4.70076e-08
2.10941e-08
-5.45482e-08
2.31298e-08
-6.27671e-08
2.52279e-08
-7.16806e-08
2.7383e-08
-8.13022e-08
2.95881e-08
-9.16421e-08
3.18342e-08
-1.02706e-07
3.41096e-08
-1.14492e-07
3.63984e-08
-1.26993e-07
3.86795e-08
-1.4019e-07
4.09247e-08
-1.54051e-07
4.30966e-08
-1.68526e-07
4.51462e-08
-1.83542e-07
4.70101e-08
-1.98999e-07
4.86043e-08
-2.14756e-07
4.98101e-08
5.04535e-08
-2.30612e-07
-1.48193e-10
6.21341e-10
-5.98694e-10
1.88757e-09
-1.37581e-09
3.25445e-09
-2.50427e-09
4.72389e-09
-4.00908e-09
6.29724e-09
-5.91538e-09
7.97534e-09
-8.24828e-09
9.7586e-09
-1.10328e-08
1.16469e-08
-1.42935e-08
1.36398e-08
-1.80545e-08
1.5736e-08
-2.23395e-08
1.79339e-08
-2.71709e-08
2.02314e-08
-3.25703e-08
2.26255e-08
-3.85578e-08
2.51126e-08
-4.5152e-08
2.76884e-08
-5.23696e-08
3.03474e-08
-6.02246e-08
3.3083e-08
-6.87285e-08
3.58868e-08
-7.78888e-08
3.87484e-08
-8.77089e-08
4.16543e-08
-9.8186e-08
4.45867e-08
-1.0931e-07
4.75229e-08
-1.21063e-07
5.04321e-08
-1.33413e-07
5.32745e-08
-1.46313e-07
5.59973e-08
-1.597e-07
5.85323e-08
-1.73481e-07
6.07915e-08
-1.87536e-07
6.26591e-08
-2.01702e-07
6.39765e-08
6.4504e-08
-2.15753e-07
-1.40249e-10
7.61589e-10
-5.66902e-10
2.31422e-09
-1.30325e-09
3.9908e-09
-2.37295e-09
5.79358e-09
-3.79983e-09
7.72412e-09
-5.60778e-09
9.7833e-09
-7.82053e-09
1.19714e-08
-1.04615e-08
1.42879e-08
-1.35536e-08
1.67318e-08
-1.71189e-08
1.93013e-08
-2.11787e-08
2.19937e-08
-2.57529e-08
2.48056e-08
-3.086e-08
2.77325e-08
-3.65165e-08
3.07691e-08
-4.27369e-08
3.39088e-08
-4.95329e-08
3.71434e-08
-5.69132e-08
4.04633e-08
-6.48826e-08
4.38561e-08
-7.3441e-08
4.73069e-08
-8.25829e-08
5.07961e-08
-9.22953e-08
5.42992e-08
-1.02557e-07
5.77841e-08
-1.13334e-07
6.12094e-08
-1.2458e-07
6.45209e-08
-1.36232e-07
6.76488e-08
-1.48202e-07
7.0503e-08
-1.6038e-07
7.29687e-08
-1.72617e-07
7.48963e-08
-1.84724e-07
7.60837e-08
7.62129e-08
-1.96433e-07
-1.30712e-10
8.92301e-10
-5.28705e-10
2.71221e-09
-1.21601e-09
4.6781e-09
-2.21494e-09
6.79251e-09
-3.5479e-09
9.05708e-09
-5.23718e-09
1.14726e-08
-7.30481e-09
1.4039e-08
-9.77226e-09
1.67554e-08
-1.26603e-08
1.96199e-08
-1.59885e-08
2.26296e-08
-1.97754e-08
2.57806e-08
-2.40376e-08
2.90678e-08
-2.87898e-08
3.24847e-08
-3.40443e-08
3.60236e-08
-3.98104e-08
3.96749e-08
-4.60942e-08
4.34272e-08
-5.28974e-08
4.72664e-08
-6.02169e-08
5.11756e-08
-6.80436e-08
5.51336e-08
-7.63612e-08
5.91137e-08
-8.51445e-08
6.30825e-08
-9.43575e-08
6.69972e-08
-1.03951e-07
7.08028e-08
-1.13859e-07
7.44292e-08
-1.23997e-07
7.77865e-08
-1.34254e-07
8.07601e-08
-1.44491e-07
8.32056e-08
-1.54532e-07
8.49368e-08
-1.64162e-07
8.57143e-08
8.51043e-08
-1.73054e-07
-1.19824e-10
1.01212e-09
-4.85043e-10
3.07743e-09
-1.1162e-09
5.30926e-09
-2.034e-09
7.71032e-09
-3.25915e-09
1.02822e-08
-4.81206e-09
1.30255e-08
-6.71271e-09
1.59396e-08
-8.98029e-09
1.90229e-08
-1.1633e-08
2.22725e-08
-1.46875e-08
2.56841e-08
-1.8159e-08
2.9252e-08
-2.20602e-08
3.2969e-08
-2.64017e-08
3.68261e-08
-3.11904e-08
4.08124e-08
-3.64301e-08
4.49146e-08
-4.21199e-08
4.91169e-08
-4.82537e-08
5.34003e-08
-5.48194e-08
5.77413e-08
-6.17973e-08
6.21115e-08
-6.9159e-08
6.64754e-08
-7.68652e-08
7.07888e-08
-8.48638e-08
7.49958e-08
-9.30869e-08
7.90259e-08
-1.01448e-07
8.27901e-08
-1.09837e-07
8.61754e-08
-1.18116e-07
8.90397e-08
-1.26116e-07
9.12055e-08
-1.33626e-07
9.24465e-08
-1.40416e-07
9.2505e-08
9.07657e-08
-1.46078e-07
-1.07848e-10
1.11997e-09
-4.36957e-10
3.40654e-09
-1.00615e-09
5.87845e-09
-1.83431e-09
8.53848e-09
-2.94013e-09
1.1388e-08
-4.34191e-09
1.44273e-08
-6.05722e-09
1.76549e-08
-8.10264e-09
2.10684e-08
-1.04934e-08
2.46632e-08
-1.32429e-08
2.84336e-08
-1.63624e-08
3.23716e-08
-1.98605e-08
3.64672e-08
-2.37427e-08
4.07083e-08
-2.80103e-08
4.508e-08
-3.26604e-08
4.95647e-08
-3.76847e-08
5.41412e-08
-4.30683e-08
5.87839e-08
-4.8789e-08
6.3462e-08
-5.48155e-08
6.8138e-08
-6.11059e-08
7.27658e-08
-6.76056e-08
7.72885e-08
-7.42447e-08
8.16348e-08
-8.0935e-08
8.57163e-08
-8.75669e-08
8.94219e-08
-9.40045e-08
9.2613e-08
-1.00081e-07
9.51158e-08
-1.05593e-07
9.67176e-08
-1.10294e-07
9.71477e-08
-1.13931e-07
9.61421e-08
9.28443e-08
-1.16009e-07
-9.50688e-11
1.21504e-09
-3.85561e-10
3.69703e-09
-8.88375e-10
6.38126e-09
-1.62032e-09
9.27042e-09
-2.59786e-09
1.23656e-08
-3.83686e-09
1.56663e-08
-5.35223e-09
1.91703e-08
-7.15758e-09
2.28737e-08
-9.2648e-09
2.67705e-08
-1.16836e-08
3.08524e-08
-1.44211e-08
3.51091e-08
-1.74811e-08
3.95271e-08
-2.08634e-08
4.40906e-08
-2.45634e-08
4.878e-08
-2.85708e-08
5.35722e-08
-3.28691e-08
5.84395e-08
-3.7434e-08
6.33488e-08
-4.22323e-08
6.82603e-08
-4.72202e-08
7.31259e-08
-5.23415e-08
7.78871e-08
-5.75249e-08
8.24719e-08
-6.26819e-08
8.67918e-08
-6.77031e-08
9.07375e-08
-7.24545e-08
9.41734e-08
-7.67731e-08
9.69315e-08
-8.04605e-08
9.88032e-08
-8.32796e-08
9.95367e-08
-8.49496e-08
9.88176e-08
-8.51872e-08
9.63797e-08
9.10439e-08
-8.33869e-08
-8.17749e-11
1.29681e-09
-3.31993e-10
3.94725e-09
-7.65428e-10
6.8147e-09
-1.3966e-09
9.9016e-09
-2.23952e-09
1.32085e-08
-3.30734e-09
1.67341e-08
-4.61203e-09
2.0475e-08
-6.16392e-09
2.44256e-08
-7.97128e-09
2.85778e-08
-1.00398e-08
3.29209e-08
-1.23718e-08
3.74411e-08
-1.4966e-08
4.21213e-08
-1.78164e-08
4.69409e-08
-2.09114e-08
5.1875e-08
-2.42334e-08
5.68941e-08
-2.77567e-08
6.19628e-08
-3.14472e-08
6.70393e-08
-3.52601e-08
7.20731e-08
-3.91382e-08
7.70041e-08
-4.30103e-08
8.17591e-08
-4.67881e-08
8.62497e-08
-5.03636e-08
9.03673e-08
-5.36057e-08
9.39796e-08
-5.63559e-08
9.69235e-08
-5.84235e-08
9.89992e-08
-5.95797e-08
9.99594e-08
-5.95473e-08
9.95043e-08
-5.80006e-08
9.72709e-08
-5.46696e-08
9.30487e-08
8.5174e-08
-4.87997e-08
-6.82514e-11
1.36506e-09
-2.77375e-10
4.15637e-09
-6.39842e-10
7.17717e-09
-1.16769e-09
1.04294e-08
-1.87223e-09
1.39131e-08
-2.76369e-09
1.76256e-08
-3.85081e-09
2.15621e-08
-5.14039e-09
2.57152e-08
-6.63674e-09
3.00742e-08
-8.34111e-09
3.46253e-08
-1.0251e-08
3.9351e-08
-1.23594e-08
4.42297e-08
-1.46541e-08
4.92356e-08
-1.71164e-08
5.43374e-08
-1.97205e-08
5.94982e-08
-2.24316e-08
6.4674e-08
-2.52048e-08
6.98125e-08
-2.79833e-08
7.48516e-08
-3.06964e-08
7.97172e-08
-3.32571e-08
8.43199e-08
-3.55602e-08
8.85527e-08
-3.74779e-08
9.2285e-08
-3.88575e-08
9.53592e-08
-3.95159e-08
9.75819e-08
-3.92345e-08
9.87179e-08
-3.77549e-08
9.84798e-08
-3.47666e-08
9.6516e-08
-2.98547e-08
9.23591e-08
-2.27428e-08
8.59367e-08
7.55048e-08
-1.30736e-08
-5.47679e-11
1.41983e-09
-2.22773e-10
4.32438e-09
-5.14023e-10
7.46842e-09
-9.37894e-10
1.08533e-08
-1.5028e-09
1.4478e-08
-2.21581e-09
1.83386e-08
-3.08221e-09
2.24285e-08
-4.10499e-09
2.67379e-08
-5.28424e-09
3.12534e-08
-6.61651e-09
3.59576e-08
-8.09403e-09
4.08285e-08
-9.70394e-09
4.58397e-08
-1.14274e-08
5.0959e-08
-1.32383e-08
5.61483e-08
-1.51023e-08
6.13621e-08
-1.69749e-08
6.65466e-08
-1.88004e-08
7.1638e-08
-2.05094e-08
7.65607e-08
-2.20175e-08
8.12253e-08
-2.32224e-08
8.55247e-08
-2.40011e-08
8.93315e-08
-2.42071e-08
9.2491e-08
-2.36649e-08
9.4817e-08
-2.21669e-08
9.60839e-08
-1.94672e-08
9.60182e-08
-1.52774e-08
9.42901e-08
-9.27334e-09
9.05119e-08
-1.15281e-09
8.42385e-08
1.01666e-08
7.46173e-08
6.16759e-08
2.39955e-08
-4.15675e-11
1.4614e-09
-1.69151e-10
4.45196e-09
-3.9016e-10
7.68942e-09
-7.11146e-10
1.11743e-08
-1.13746e-09
1.49043e-08
-1.6728e-09
1.88739e-08
-2.31879e-09
2.30745e-08
-3.07435e-09
2.74935e-08
-3.93512e-09
3.21142e-08
-4.89269e-09
3.69151e-08
-5.93376e-09
4.18696e-08
-7.03937e-09
4.69453e-08
-8.18379e-09
5.21034e-08
-9.33318e-09
5.72977e-08
-1.04442e-08
6.24732e-08
-1.14625e-08
6.75649e-08
-1.23212e-08
7.24966e-08
-1.29386e-08
7.7178e-08
-1.32163e-08
8.15031e-08
-1.3037e-08
8.53454e-08
-1.22601e-08
8.85545e-08
-1.07188e-08
9.09498e-08
-8.21641e-09
9.23146e-08
-4.52103e-09
9.23885e-08
6.39607e-10
9.08575e-08
7.58357e-09
8.73461e-08
1.66865e-08
8.14089e-08
2.8422e-08
7.25031e-08
4.31608e-08
5.98784e-08
4.3173e-08
6.16637e-08
-2.88566e-11
1.49026e-09
-1.17336e-10
4.54044e-09
-2.70135e-10
7.84222e-09
-4.90859e-10
1.1395e-08
-7.81633e-10
1.5195e-08
-1.14265e-09
1.92349e-08
-1.57162e-09
2.35035e-08
-2.0632e-09
2.79851e-08
-2.60833e-09
3.26593e-08
-3.19345e-09
3.75003e-08
-3.79954e-09
4.24757e-08
-4.40136e-09
4.75471e-08
-4.96594e-09
5.2668e-08
-5.4512e-09
5.7783e-08
-5.8047e-09
6.28267e-08
-5.96211e-09
6.77223e-08
-5.84536e-09
7.23799e-08
-5.3607e-09
7.66934e-08
-4.39597e-09
8.05384e-08
-2.81782e-09
8.37673e-08
-4.68346e-10
8.6205e-08
2.83828e-09
8.76431e-08
7.32011e-09
8.78328e-08
1.32323e-08
8.64763e-08
2.08729e-08
8.3217e-08
3.05893e-08
7.76297e-08
4.27894e-08
6.92089e-08
5.79463e-08
5.73463e-08
7.65332e-08
4.12915e-08
2.03697e-08
9.93364e-08
-1.68001e-11
1.50705e-09
-6.79959e-11
4.59164e-09
-1.55484e-10
7.92971e-09
-2.7981e-10
1.15193e-08
-4.3976e-10
1.5355e-08
-6.31867e-10
1.9427e-08
-8.49827e-10
2.37214e-08
-1.08383e-09
2.82191e-08
-1.31981e-09
3.28953e-08
-1.53887e-09
3.77193e-08
-1.71643e-09
4.26532e-08
-1.82026e-09
4.76509e-08
-1.80958e-09
5.26573e-08
-1.6341e-09
5.76075e-08
-1.2325e-09
6.24251e-08
-5.30629e-10
6.70205e-08
5.60578e-10
7.12887e-08
2.14745e-09
7.51065e-08
4.35633e-09
7.83295e-08
7.33614e-09
8.07875e-08
1.12617e-08
8.22794e-08
1.63377e-08
8.25672e-08
2.28027e-08
8.13678e-08
3.09345e-08
7.83445e-08
4.10554e-08
7.3096e-08
5.35398e-08
6.51452e-08
6.88217e-08
5.3927e-08
8.74005e-08
3.87675e-08
1.09819e-07
1.8873e-08
-6.66506e-09
1.36854e-07
-5.53901e-12
1.51259e-09
-2.16946e-11
4.60779e-09
-4.74784e-11
7.95549e-09
-8.02676e-11
1.15521e-08
-1.15379e-10
1.53901e-08
-1.45553e-10
1.94572e-08
-1.60349e-10
2.37362e-08
-1.4546e-10
2.82042e-08
-8.18961e-11
3.28318e-08
5.50277e-11
3.75824e-08
2.96579e-10
4.24117e-08
6.81826e-10
4.72657e-08
1.25866e-09
5.20805e-08
2.08541e-09
5.67807e-08
3.23256e-09
6.12779e-08
4.78458e-09
6.54685e-08
6.84207e-09
6.92312e-08
9.52399e-09
7.24246e-08
1.29705e-08
7.4883e-08
1.73457e-08
7.64122e-08
2.28414e-08
7.67838e-08
2.96804e-08
7.57282e-08
3.81214e-08
7.29268e-08
4.84637e-08
6.80022e-08
6.1053e-08
6.05067e-08
7.62886e-08
4.99096e-08
9.46305e-08
3.55851e-08
1.16608e-07
1.67896e-08
1.42808e-07
-7.3266e-09
-3.78759e-08
1.74019e-07
4.78395e-12
1.50781e-09
2.10489e-11
4.59153e-09
5.27436e-11
7.9238e-09
1.05746e-10
1.14991e-08
1.88319e-10
1.53075e-08
3.11655e-10
1.93339e-08
4.90521e-10
2.35574e-08
7.43986e-10
2.79507e-08
1.09627e-09
3.24795e-08
1.57773e-09
3.71009e-08
2.22605e-09
4.17634e-08
3.08707e-09
4.64046e-08
4.21638e-09
5.09512e-08
5.68081e-09
5.53163e-08
7.5602e-09
5.93985e-08
9.94941e-09
6.30792e-08
1.29605e-08
6.62201e-08
1.67249e-08
6.86601e-08
2.13967e-08
7.02112e-08
2.71551e-08
7.06538e-08
3.42085e-08
6.97304e-08
4.27976e-08
6.7139e-08
5.32007e-08
6.25238e-08
6.57378e-08
5.54651e-08
8.07768e-08
4.54676e-08
9.87405e-08
3.19459e-08
1.20114e-07
1.42118e-08
1.45453e-07
-8.55004e-09
1.7538e-07
-3.72534e-08
-7.31977e-08
2.10702e-07
1.41579e-11
1.49365e-09
6.01435e-11
4.54554e-09
1.44923e-10
7.83902e-09
2.77701e-10
1.13664e-08
4.70403e-10
1.51148e-08
7.38261e-10
1.9066e-08
1.10048e-09
2.31951e-08
1.58102e-09
2.74702e-08
2.20947e-09
3.1851e-08
3.02207e-09
3.62883e-08
4.06284e-09
4.07226e-08
5.38476e-09
4.50827e-08
7.05125e-09
4.92847e-08
9.13776e-09
5.32298e-08
1.17337e-08
5.68026e-08
1.49444e-08
5.98685e-08
1.88934e-08
6.22712e-08
2.37248e-08
6.38287e-08
2.96065e-08
6.43295e-08
3.67329e-08
6.35274e-08
4.53286e-08
6.11347e-08
5.56523e-08
5.68153e-08
6.80011e-08
5.0175e-08
8.27151e-08
4.07511e-08
1.00184e-07
2.79991e-08
1.20851e-07
1.12784e-08
1.45225e-07
-1.01621e-08
1.73885e-07
-3.72099e-08
2.07484e-07
-7.08524e-08
-1.12566e-07
2.46852e-07
2.25991e-11
1.47105e-09
9.56345e-11
4.47251e-09
2.29128e-10
7.70553e-09
4.35664e-10
1.11598e-08
7.30904e-10
1.48196e-08
1.1342e-09
1.86627e-08
1.6693e-09
2.266e-08
2.36515e-09
2.67743e-08
3.25684e-09
3.09593e-08
4.38661e-09
3.51586e-08
5.80505e-09
3.93041e-08
7.57243e-09
4.33153e-08
9.76013e-09
4.7097e-08
1.24524e-08
5.05375e-08
1.57485e-08
5.35065e-08
1.97642e-08
5.58528e-08
2.46348e-08
5.74006e-08
3.05171e-08
5.79464e-08
3.75929e-08
5.72537e-08
4.60719e-08
5.50484e-08
5.61949e-08
5.10116e-08
6.82384e-08
4.47719e-08
8.25178e-08
3.58956e-08
9.9393e-08
2.38759e-08
1.19273e-07
8.11895e-09
1.42623e-07
-1.2071e-08
1.69968e-07
-3.75071e-08
2.01909e-07
-6.91514e-08
2.39127e-07
-1.0807e-07
-1.55915e-07
2.82476e-07
3.01575e-11
1.44089e-09
1.27713e-10
4.37495e-09
3.05771e-10
7.52747e-09
5.80341e-10
1.08852e-08
9.70882e-10
1.4429e-08
1.50094e-09
1.81327e-08
2.19889e-09
2.19621e-08
3.09878e-09
2.58745e-08
4.24131e-09
2.98168e-08
5.67487e-09
3.3725e-08
7.45682e-09
3.75222e-08
9.65483e-09
4.11173e-08
1.23485e-08
4.44033e-08
1.56312e-08
4.72548e-08
1.96118e-08
4.95259e-08
2.44172e-08
5.10475e-08
3.01942e-08
5.16236e-08
3.7113e-08
5.10276e-08
4.53693e-08
4.89974e-08
5.5188e-08
4.52297e-08
6.68266e-08
3.9373e-08
8.05788e-08
3.10197e-08
9.67784e-08
1.96959e-08
1.15804e-07
4.85015e-09
1.38083e-07
-1.416e-08
1.64097e-07
-3.80847e-08
1.94389e-07
-6.77995e-08
2.29578e-07
-1.04341e-07
2.70363e-07
-1.48855e-07
-2.03172e-07
3.17619e-07
3.69249e-11
1.40397e-09
1.56731e-10
4.25515e-09
3.75629e-10
7.30857e-09
7.13093e-10
1.05478e-08
1.19243e-09
1.39497e-08
1.84144e-09
1.74836e-08
2.69324e-09
2.11103e-08
3.78707e-09
2.47806e-08
5.16935e-09
2.84345e-08
6.89479e-09
3.19996e-08
9.02766e-09
3.53893e-08
1.16433e-08
3.85017e-08
1.48297e-08
4.12169e-08
1.86894e-08
4.3395e-08
2.33416e-08
4.48737e-08
2.8924e-08
4.54651e-08
3.55958e-08
4.49518e-08
4.35402e-08
4.30832e-08
5.29675e-08
3.95702e-08
6.4118e-08
3.40792e-08
7.72657e-08
2.62253e-08
9.27217e-08
1.55637e-08
1.10838e-07
1.57981e-09
1.3201e-07
-1.63215e-08
1.5668e-07
-3.88307e-08
1.85347e-07
-6.67518e-08
2.18569e-07
-1.01021e-07
2.56973e-07
-1.42745e-07
3.01271e-07
-1.93153e-07
-2.54248e-07
3.52348e-07
4.30279e-11
1.36094e-09
1.83179e-10
4.11499e-09
4.39793e-10
7.05195e-09
8.3584e-10
1.01517e-08
1.39853e-09
1.3387e-08
2.16e-09
1.67222e-08
3.15816e-09
2.01121e-08
4.43757e-09
2.35012e-08
6.05052e-09
2.68216e-08
8.05815e-09
2.99919e-08
1.05319e-08
3.29156e-08
1.35549e-08
3.54787e-08
1.72239e-08
3.75479e-08
2.16508e-08
3.89681e-08
2.69652e-08
3.95594e-08
3.33163e-08
3.9114e-08
4.08758e-08
3.73923e-08
4.98403e-08
3.41186e-08
6.04349e-08
2.89756e-08
7.29156e-08
2.15985e-08
8.75731e-08
1.15678e-08
1.04735e-07
-1.59867e-09
1.24771e-07
-1.84555e-08
1.4809e-07
-3.96411e-08
1.75153e-07
-6.58932e-08
2.06468e-07
-9.80669e-08
2.42601e-07
-1.37154e-07
2.84186e-07
-1.8433e-07
3.31934e-07
-2.40901e-07
-3.09032e-07
3.86718e-07
4.86218e-11
1.31232e-09
2.07662e-10
3.95595e-09
4.9961e-10
6.76e-09
9.50971e-10
9.70038e-09
1.5929e-09
1.27451e-08
2.46196e-09
1.58531e-08
3.60093e-09
1.89732e-08
5.05981e-09
2.20423e-08
6.89688e-09
2.49845e-08
9.17991e-09
2.77089e-08
1.19877e-08
3.01078e-08
1.54114e-08
3.20549e-08
1.95567e-08
3.34026e-08
2.45454e-08
3.39794e-08
3.05176e-08
3.35872e-08
3.76343e-08
3.19972e-08
4.608e-08
2.89466e-08
5.60654e-08
2.41332e-08
6.78304e-08
1.72106e-08
8.16471e-08
7.78186e-09
9.78222e-08
-4.60731e-09
1.167e-07
-2.04764e-08
1.38664e-07
-4.04195e-08
1.64141e-07
-6.51178e-08
1.936e-07
-9.53529e-08
2.27559e-07
-1.32026e-07
2.66584e-07
-1.76179e-07
3.11301e-07
-2.29046e-07
3.62415e-07
-2.92015e-07
-3.67371e-07
4.20754e-07
5.38828e-11
1.25844e-09
2.30866e-10
3.77897e-09
5.56617e-10
6.43425e-09
1.06121e-09
9.19578e-09
1.77981e-09
1.20265e-08
2.75346e-09
1.48795e-08
4.02993e-09
1.76967e-08
5.66477e-09
2.04075e-08
7.72238e-09
2.29269e-08
1.02774e-08
2.51539e-08
1.34161e-08
2.69692e-08
1.7238e-08
2.8233e-08
2.1858e-08
2.87826e-08
2.74078e-08
2.84296e-08
3.40388e-08
2.69563e-08
4.19239e-08
2.41121e-08
5.12609e-08
1.96096e-08
6.22747e-08
1.31194e-08
7.52204e-08
4.26495e-09
9.03854e-08
-7.3832e-09
1.08092e-07
-2.23143e-08
1.28701e-07
-4.1085e-08
1.5261e-07
-6.43286e-08
1.80258e-07
-9.27655e-08
2.12121e-07
-1.27216e-07
2.48716e-07
-1.68621e-07
2.906e-07
-2.18063e-07
3.38379e-07
-2.76825e-07
3.9274e-07
-3.46377e-07
-4.29049e-07
4.54418e-07
5.8999e-11
1.19944e-09
2.53529e-10
3.58444e-09
6.12462e-10
6.07532e-09
1.16949e-09
8.63875e-09
1.96385e-09
1.12321e-08
3.04114e-09
1.38022e-08
4.45422e-09
1.62836e-08
6.2643e-09
1.85974e-08
8.5421e-09
2.06491e-08
1.13692e-08
2.23267e-08
1.48398e-08
2.34986e-08
1.90619e-08
2.40108e-08
2.41598e-08
2.36848e-08
3.02755e-08
2.23139e-08
3.75718e-08
1.96599e-08
4.62343e-08
1.54496e-08
5.6474e-08
9.3699e-09
6.85302e-08
1.06319e-09
8.26727e-08
-9.87757e-09
9.92043e-08
-2.39148e-08
1.18463e-07
-4.15731e-08
1.40824e-07
-6.34458e-08
1.66698e-07
-9.02027e-08
1.96531e-07
-1.22599e-07
2.30802e-07
-1.61487e-07
2.70015e-07
-2.07834e-07
3.14706e-07
-2.62754e-07
3.65442e-07
-3.27562e-07
4.22883e-07
-4.03818e-07
-4.93759e-07
4.87593e-07
6.4163e-11
1.13527e-09
2.76403e-10
3.3722e-09
6.68834e-10
5.68289e-09
1.27882e-09
8.02877e-09
2.14973e-09
1.03612e-08
3.33179e-09
1.26201e-08
4.88309e-09
1.47323e-08
6.8706e-09
1.66099e-08
9.37154e-09
1.81482e-08
1.24747e-08
1.92235e-08
1.62822e-08
1.96911e-08
2.09109e-08
1.93822e-08
2.64946e-08
1.81011e-08
3.31863e-08
1.56222e-08
4.11602e-08
1.1686e-08
5.06146e-08
5.99527e-09
6.17739e-08
-1.78948e-09
7.48917e-08
-1.20545e-08
9.02522e-08
-2.52381e-08
1.08174e-07
-4.18363e-08
1.29009e-07
-6.24083e-08
1.53145e-07
-8.75825e-08
1.81004e-07
-1.18062e-07
2.13035e-07
-1.54629e-07
2.49708e-07
-1.9816e-07
2.91508e-07
-2.49634e-07
3.38928e-07
-3.10174e-07
3.92471e-07
-3.81105e-07
4.52754e-07
-4.64101e-07
-5.61057e-07
5.20052e-07
6.95623e-11
1.06571e-09
3.00224e-10
3.14154e-09
7.27388e-10
5.25573e-09
1.39214e-09
7.36402e-09
2.34206e-09
9.41131e-09
3.6321e-09
1.13301e-08
5.32564e-09
1.30388e-08
7.49561e-09
1.44399e-08
1.02259e-08
1.54179e-08
1.36126e-08
1.58368e-08
1.77659e-08
1.55378e-08
2.28119e-08
1.43362e-08
2.88941e-08
1.20188e-08
3.61765e-08
8.33983e-09
4.48451e-08
3.01743e-09
5.51106e-08
-4.27029e-09
6.7211e-08
-1.38898e-08
8.14134e-08
-2.62569e-08
9.80169e-08
-4.18416e-08
1.17354e-07
-6.11733e-08
1.3979e-07
-8.48447e-08
1.65725e-07
-1.13517e-07
1.95584e-07
-1.47921e-07
2.29816e-07
-1.88862e-07
2.68878e-07
-2.37222e-07
3.13216e-07
-2.93972e-07
3.63259e-07
-3.60216e-07
4.19398e-07
-4.37243e-07
4.82193e-07
-5.26897e-07
-6.30295e-07
5.51432e-07
7.53729e-11
9.90337e-10
3.25683e-10
2.89123e-09
7.89673e-10
4.79174e-09
1.51222e-09
6.64148e-09
2.54516e-09
8.37836e-09
3.9483e-09
9.92694e-09
5.79041e-09
1.11967e-08
8.1505e-09
1.20798e-08
1.11192e-08
1.24492e-08
1.48002e-08
1.21558e-08
1.9312e-08
1.1026e-08
2.47896e-08
8.85856e-09
3.13871e-08
5.42141e-09
3.92789e-08
4.47958e-10
4.8663e-08
-6.36665e-09
5.97624e-08
-1.53697e-08
7.28282e-08
-2.69556e-08
8.81412e-08
-4.15699e-08
1.06014e-07
-5.97145e-08
1.26792e-07
-8.1951e-08
1.50851e-07
-1.08904e-07
1.78599e-07
-1.41264e-07
2.10464e-07
-1.79786e-07
2.4689e-07
-2.25287e-07
2.88311e-07
-2.78644e-07
3.35128e-07
-3.40789e-07
3.8767e-07
-4.12758e-07
4.46137e-07
-4.95711e-07
5.1095e-07
-5.9171e-07
-7.00547e-07
5.81202e-07
8.17518e-11
9.08585e-10
3.53399e-10
2.61958e-09
8.57078e-10
4.28806e-09
1.64152e-09
5.85704e-09
2.76292e-09
7.25695e-09
4.28599e-09
8.40388e-09
6.28502e-09
9.19765e-09
8.84522e-09
9.51963e-09
1.20641e-08
9.23036e-09
1.60529e-08
8.16696e-09
2.09387e-08
6.14024e-09
2.68657e-08
2.93148e-09
3.3998e-08
-1.71089e-09
4.2521e-08
-8.07503e-09
5.2644e-08
-1.64896e-08
6.46023e-08
-2.7328e-08
7.86595e-08
-4.10128e-08
9.51093e-08
-5.80197e-08
1.14276e-07
-7.88812e-08
1.36515e-07
-1.0419e-07
1.62212e-07
-1.34601e-07
1.91778e-07
-1.7083e-07
2.2564e-07
-2.13649e-07
2.64233e-07
-2.6388e-07
3.0797e-07
-3.2238e-07
3.572e-07
-3.90019e-07
4.12148e-07
-4.67706e-07
4.72721e-07
-5.56284e-07
5.38821e-07
-6.5781e-07
-7.70302e-07
6.08577e-07
8.88327e-11
8.19753e-10
3.83894e-10
2.32452e-09
9.30782e-10
3.74117e-09
1.78214e-09
5.00568e-09
2.99862e-09
6.04047e-09
4.64989e-09
6.75261e-09
6.81588e-09
7.03165e-09
9.58807e-09
6.74744e-09
1.30709e-08
5.74753e-09
1.73834e-08
3.85444e-09
2.2661e-08
8.62616e-10
2.90574e-08
-3.46485e-09
3.67462e-08
-9.39974e-09
4.59237e-08
-1.72525e-08
5.68104e-08
-2.73763e-08
6.96532e-08
-4.01709e-08
8.47274e-08
-5.60871e-08
1.02338e-07
-7.56297e-08
1.22818e-07
-9.93614e-08
1.46531e-07
-1.27904e-07
1.73868e-07
-1.61938e-07
2.05239e-07
-2.02201e-07
2.41068e-07
-2.49477e-07
2.81775e-07
-3.04588e-07
3.27758e-07
-3.68362e-07
3.79342e-07
-4.41603e-07
4.36699e-07
-5.25063e-07
4.99556e-07
-6.19141e-07
5.66742e-07
-7.24997e-07
-8.3585e-07
6.3229e-07
9.67196e-11
7.23034e-10
4.17584e-10
2.00366e-09
1.01171e-09
3.14704e-09
1.93575e-09
4.08164e-09
3.25483e-09
4.72139e-09
5.04371e-09
4.96373e-09
7.388e-09
4.68736e-09
1.03855e-08
3.74995e-09
1.41476e-08
1.98537e-09
1.88012e-08
-7.99139e-10
2.449e-08
-4.82619e-09
3.13767e-08
-1.03516e-08
3.96449e-08
-1.76679e-08
4.9501e-08
-2.71086e-08
6.11762e-08
-3.90514e-08
7.4928e-08
-5.39227e-08
9.10417e-08
-7.22008e-08
1.09831e-07
-9.44188e-08
1.31637e-07
-1.21167e-07
1.56826e-07
-1.53094e-07
1.85789e-07
-1.90901e-07
2.18931e-07
-2.35342e-07
2.56662e-07
-2.87209e-07
2.99389e-07
-3.47314e-07
3.47493e-07
-4.16466e-07
4.01315e-07
-4.95425e-07
4.61105e-07
-5.84854e-07
5.27044e-07
-6.85079e-07
5.99121e-07
-7.97074e-07
-9.18741e-07
6.82012e-07
1.05494e-10
6.17541e-10
4.54779e-10
1.65437e-09
1.10057e-09
2.50125e-09
2.10355e-09
3.07866e-09
3.53342e-09
3.29152e-09
5.47009e-09
3.02705e-09
8.00487e-09
2.15258e-09
1.12419e-08
5.12927e-10
1.52996e-08
-2.07233e-09
2.03124e-08
-5.8119e-09
2.64322e-08
-1.09461e-08
3.38309e-08
-1.77502e-08
4.27012e-08
-2.65382e-08
5.32592e-08
-3.76667e-08
6.57459e-08
-5.15381e-08
8.04279e-08
-6.86048e-08
9.75988e-08
-8.93716e-08
1.17578e-07
-1.14398e-07
1.40711e-07
-1.443e-07
1.67364e-07
-1.79746e-07
1.97919e-07
-2.21456e-07
2.32769e-07
-2.70191e-07
2.72301e-07
-3.26741e-07
3.16887e-07
-3.91901e-07
3.6687e-07
-4.66449e-07
4.22538e-07
-5.51094e-07
4.8411e-07
-6.46426e-07
5.51822e-07
-7.52791e-07
6.25712e-07
-8.70964e-07
-9.98492e-07
7.05463e-07
1.15199e-10
5.02342e-10
4.95657e-10
1.27391e-09
1.19773e-09
1.79917e-09
2.28623e-09
1.99017e-09
3.83547e-09
1.74227e-09
5.93051e-09
9.32019e-10
8.66837e-09
-5.8528e-10
1.21595e-08
-2.97818e-09
1.65292e-08
-6.44203e-09
2.19193e-08
-1.12021e-08
2.84901e-08
-1.75169e-08
3.64216e-08
-2.56817e-08
4.59156e-08
-3.60322e-08
5.71969e-08
-4.89479e-08
7.05147e-08
-6.4856e-08
8.61435e-08
-8.42336e-08
1.04382e-07
-1.07611e-07
1.25555e-07
-1.3557e-07
1.50004e-07
-1.6875e-07
1.78091e-07
-2.07833e-07
2.10185e-07
-2.5355e-07
2.46654e-07
-3.0666e-07
2.8785e-07
-3.67937e-07
3.34096e-07
-4.38146e-07
3.85659e-07
-5.18012e-07
4.4272e-07
-6.08155e-07
5.0536e-07
-7.09066e-07
5.73549e-07
-8.2098e-07
6.46822e-07
-9.44237e-07
-1.07569e-06
7.24018e-07
1.25854e-10
3.76488e-10
5.40285e-10
8.59482e-10
1.30336e-09
1.0361e-09
2.48404e-09
8.09488e-10
4.16129e-09
6.50189e-11
6.42531e-09
-1.33199e-09
9.37879e-09
-3.53876e-09
1.31384e-08
-6.73778e-09
1.78362e-08
-1.11399e-08
2.36215e-08
-1.69873e-08
3.0662e-08
-2.45573e-08
3.91457e-08
-3.41654e-08
4.92825e-08
-4.61689e-08
6.13048e-08
-6.09703e-08
7.5469e-08
-7.90201e-08
9.20546e-08
-1.00819e-07
1.11364e-07
-1.2692e-07
1.33721e-07
-1.57927e-07
1.59463e-07
-1.94491e-07
1.88938e-07
-2.37309e-07
2.22496e-07
-2.87108e-07
2.60472e-07
-3.44636e-07
3.03172e-07
-4.10637e-07
3.50852e-07
-4.85826e-07
4.03681e-07
-5.7084e-07
4.61716e-07
-6.6619e-07
5.24879e-07
-7.72229e-07
5.92872e-07
-8.88974e-07
6.64956e-07
-1.01632e-06
-1.15066e-06
7.39926e-07
1.37451e-10
2.39037e-10
5.88627e-10
4.08305e-10
1.41735e-09
2.07374e-10
2.69676e-09
-4.69928e-10
4.51048e-09
-1.74869e-09
6.95379e-09
-3.7753e-09
1.0135e-08
-6.71999e-09
1.41769e-08
-1.07797e-08
1.92181e-08
-1.61811e-08
2.54148e-08
-2.3184e-08
3.29419e-08
-3.20845e-08
4.19948e-08
-4.32183e-08
5.27902e-08
-5.69643e-08
6.5567e-08
-7.37471e-08
8.05865e-08
-9.40396e-08
9.81317e-08
-1.18364e-07
1.18505e-07
-1.47294e-07
1.42025e-07
-1.81447e-07
1.69021e-07
-2.21487e-07
1.99823e-07
-2.68111e-07
2.34751e-07
-3.22036e-07
2.741e-07
-3.83986e-07
3.18122e-07
-4.54659e-07
3.6699e-07
-5.34694e-07
4.2077e-07
-6.2462e-07
4.79403e-07
-7.24823e-07
5.42648e-07
-8.35474e-07
6.10023e-07
-9.56348e-07
6.80667e-07
-1.08696e-06
-1.22344e-06
7.53448e-07
1.49957e-10
8.9079e-11
6.40546e-10
-8.22859e-11
1.53938e-09
-6.91459e-10
2.92379e-09
-1.85434e-09
4.88199e-09
-3.7069e-09
7.51434e-09
-6.40765e-09
1.09346e-08
-1.01403e-08
1.52715e-08
-1.51166e-08
2.067e-08
-2.15795e-08
2.72925e-08
-2.98065e-08
3.53207e-08
-4.01126e-08
4.49562e-08
-5.28538e-08
5.64216e-08
-6.84297e-08
6.99607e-08
-8.72862e-08
8.58379e-08
-1.09917e-07
1.04337e-07
-1.36863e-07
1.25756e-07
-1.68713e-07
1.50407e-07
-2.06098e-07
1.78602e-07
-2.49683e-07
2.10649e-07
-3.00158e-07
2.46834e-07
-3.58221e-07
2.87404e-07
-4.24556e-07
3.32544e-07
-4.99798e-07
3.82338e-07
-5.84488e-07
4.36757e-07
-6.7904e-07
4.95626e-07
-7.83692e-07
5.58561e-07
-8.98409e-07
6.24956e-07
-1.02274e-06
6.93896e-07
-1.1559e-06
-1.29389e-06
7.6435e-07
1.63321e-10
-7.42428e-11
6.9583e-10
-6.14796e-10
1.66894e-09
-1.66457e-09
3.16416e-09
-3.34956e-09
5.27427e-09
-5.817e-09
8.10456e-09
-9.23794e-09
1.17741e-08
-1.38099e-08
1.64173e-08
-1.97597e-08
2.21847e-08
-2.7347e-08
2.9245e-08
-3.68668e-08
3.77854e-08
-4.86531e-08
4.80131e-08
-6.30815e-08
6.0155e-08
-8.05717e-08
7.4458e-08
-1.01589e-07
9.11872e-08
-1.26646e-07
1.10624e-07
-1.563e-07
1.3306e-07
-1.9115e-07
1.58795e-07
-2.31832e-07
1.8812e-07
-2.79008e-07
2.21315e-07
-3.33353e-07
2.58625e-07
-3.95531e-07
3.00242e-07
-4.66173e-07
3.46274e-07
-5.4583e-07
3.96724e-07
-6.34938e-07
4.5147e-07
-7.33786e-07
5.10214e-07
-8.42436e-07
5.72462e-07
-9.60656e-07
6.37527e-07
-1.08781e-06
7.0447e-07
-1.22285e-06
-1.36178e-06
7.72357e-07
1.77473e-10
-2.51717e-10
7.54198e-10
-1.19152e-09
1.80538e-09
-2.71575e-09
3.41666e-09
-4.96083e-09
5.68528e-09
-8.08562e-09
8.72131e-09
-1.2274e-08
1.26489e-08
-1.77375e-08
1.76077e-08
-2.47185e-08
2.37537e-08
-3.3493e-08
3.12607e-08
-4.43738e-08
4.03209e-08
-5.77133e-08
5.11456e-08
-7.39061e-08
6.39647e-08
-9.33908e-08
7.90261e-08
-1.16651e-07
9.65933e-08
-1.44213e-07
1.16942e-07
-1.76648e-07
1.40355e-07
-2.14562e-07
1.67112e-07
-2.58589e-07
1.97483e-07
-3.0938e-07
2.31712e-07
-3.67581e-07
2.69996e-07
-4.33815e-07
3.12464e-07
-5.08642e-07
3.59151e-07
-5.92516e-07
4.09979e-07
-6.85766e-07
4.64725e-07
-7.88532e-07
5.22988e-07
-9.00699e-07
5.8419e-07
-1.02186e-06
6.47582e-07
-1.1512e-06
7.12224e-07
-1.28749e-06
-1.42683e-06
7.7727e-07
1.92336e-10
-4.44054e-10
8.15319e-10
-1.81451e-09
1.94792e-09
-3.84835e-09
3.67982e-09
-6.69273e-09
6.1126e-09
-1.05184e-08
9.36092e-09
-1.55223e-08
1.35537e-08
-2.19303e-08
1.88353e-08
-3.00001e-08
2.53667e-08
-4.00243e-08
3.3326e-08
-5.23331e-08
4.29094e-08
-6.72967e-08
5.43308e-08
-8.53276e-08
6.78216e-08
-1.06882e-07
8.36286e-08
-1.32457e-07
1.02011e-07
-1.62596e-07
1.23236e-07
-1.97873e-07
1.47572e-07
-2.38898e-07
1.75278e-07
-2.86296e-07
2.06595e-07
-3.40696e-07
2.41726e-07
-4.02712e-07
2.80816e-07
-4.72905e-07
3.23925e-07
-5.51752e-07
3.7102e-07
-6.39611e-07
4.21937e-07
-7.36684e-07
4.76357e-07
-8.42951e-07
5.33793e-07
-9.58135e-07
5.93602e-07
-1.08167e-06
6.54993e-07
-1.21259e-06
7.17041e-07
-1.34954e-06
-1.48877e-06
7.78981e-07
2.07817e-10
-6.51871e-10
8.78817e-10
-2.48551e-09
2.09566e-09
-5.06519e-09
3.95198e-09
-8.54905e-09
6.5535e-09
-1.31199e-08
1.00192e-08
-1.8988e-08