/*--------------------------------*- C++ -*----------------------------------*\
| =========                 |                                                 |
| \\      /  F ield         | foam-extend: Open Source CFD                    |
|  \\    /   O peration     | Version:     4.0                                |
|   \\  /    A nd           | Web:         http://www.foam-extend.org         |
|    \\/     M anipulation  |                                                 |
\*---------------------------------------------------------------------------*/
FoamFile
{
    version     2.0;
    format      ascii;
    class       volVectorField;
    location    "80";
    object      U;
}
// * * * * * * * * * * * * * * * * * * * * * * * * * * * * * * * * * * * * * //

dimensions      [0 1 -1 0 0 0 0];

internalField   nonuniform List<vector> 
36000
(
(-2.55616e-07 1.20133e-06 -2.5209e-25)
(-2.56797e-06 3.42614e-06 2.6028e-25)
(-7.40156e-06 5.54304e-06 0)
(-1.48172e-05 7.54644e-06 0)
(-2.48312e-05 9.43154e-06 -2.25316e-25)
(-3.74758e-05 1.11937e-05 -2.13574e-25)
(-5.27837e-05 1.28288e-05 0)
(-7.07706e-05 1.43332e-05 0)
(-9.1432e-05 1.57046e-05 0)
(-0.000114743 1.69409e-05 0)
(-0.00014066 1.80411e-05 0)
(-0.000169118 1.90049e-05 -2.97931e-25)
(-0.000200032 1.9833e-05 -4.44644e-28)
(-0.000233297 2.05263e-05 -2.6044e-25)
(-0.000268791 2.10866e-05 2.4316e-25)
(-0.000306368 2.15162e-05 -2.26193e-25)
(-0.000345866 2.18177e-05 4.21534e-25)
(-0.000387104 2.19938e-05 -1.9593e-25)
(-0.000429883 2.20474e-05 1.81611e-25)
(-0.000473984 2.19806e-05 5.05574e-25)
(-0.000519171 2.17952e-05 1.35742e-28)
(-0.000565185 2.14918e-05 5.77065e-25)
(-0.000611745 2.10693e-05 -1.33109e-25)
(-0.000658542 2.05246e-05 -2.45543e-25)
(-0.000705233 1.98524e-05 -2.26294e-25)
(-0.000751439 1.90448e-05 0)
(-0.00079673 1.80906e-05 0)
(-0.000840626 1.69742e-05 0)
(-0.000882551 1.56676e-05 1.59791e-25)
(-0.000921763 1.41309e-05 -2.92341e-25)
(-3.78144e-07 3.59705e-06 0)
(-2.89477e-06 1.02622e-05 0)
(-7.89091e-06 1.66079e-05 0)
(-1.54265e-05 2.26175e-05 9.5116e-25)
(-2.55177e-05 2.82765e-05 -2.23206e-25)
(-3.81959e-05 3.35709e-05 2.1356e-25)
(-5.34932e-05 3.84881e-05 0)
(-7.14245e-05 4.30176e-05 0)
(-9.19845e-05 4.71515e-05 -7.20297e-25)
(-0.000115148 5.08839e-05 6.75592e-25)
(-0.000140869 5.42114e-05 -6.36113e-25)
(-0.000169083 5.71332e-05 5.9487e-25)
(-0.000199704 5.96501e-05 2.78639e-25)
(-0.000232625 6.17656e-05 2.6033e-25)
(-0.000267721 6.34844e-05 4.85732e-25)
(-0.000304846 6.48129e-05 0)
(-0.000343834 6.57586e-05 -1.26535e-24)
(-0.000384502 6.63297e-05 -1.08681e-27)
(-0.000426645 6.65339e-05 1.45466e-24)
(-0.000470043 6.63779e-05 -1.01083e-24)
(-0.000514451 6.58665e-05 -6.24627e-25)
(-0.000559606 6.50013e-05 5.77883e-25)
(-0.00060522 6.37789e-05 -5.32763e-25)
(-0.000650975 6.21898e-05 9.83606e-25)
(-0.000696519 6.0218e-05 -4.22524e-29)
(-0.000741461 5.7839e-05 8.3227e-25)
(-0.000785362 5.502e-05 -1.14728e-24)
(-0.000827736 5.17126e-05 0)
(-0.000867993 4.78354e-05 0)
(-0.000905165 4.32761e-05 0)
(-6.19955e-07 5.93811e-06 1.01234e-24)
(-3.5399e-06 1.69458e-05 4.6048e-27)
(-8.85708e-06 2.74314e-05 -1.4979e-24)
(-1.66297e-05 3.73668e-05 1.90655e-24)
(-2.68734e-05 4.67275e-05 -2.25504e-24)
(-3.96182e-05 5.54899e-05 -1.71577e-24)
(-5.48945e-05 6.36326e-05 3.23992e-24)
(-7.27157e-05 7.11377e-05 -1.52687e-24)
(-9.30749e-05 7.79913e-05 0)
(-0.000115945 8.41833e-05 0)
(-0.000141279 8.97076e-05 0)
(-0.00016901 9.45616e-05 0)
(-0.000199048 9.87467e-05 1.1178e-24)
(-0.000231286 0.000102268 -2.60836e-24)
(-0.000265594 0.000105132 1.94776e-24)
(-0.000301821 0.000107349 0)
(-0.000339797 0.000108931 8.45007e-25)
(-0.000379331 0.000109891 -7.84158e-25)
(-0.000420213 0.000110242 0)
(-0.000462212 0.000109993 0)
(-0.000505075 0.000109153 3.12636e-24)
(-0.000548525 0.000107724 -1.73277e-24)
(-0.000592259 0.0001057 0)
(-0.000635945 0.000103065 6.78014e-28)
(-0.000679212 9.97922e-05 -9.06505e-25)
(-0.000721647 9.58416e-05 -8.35978e-25)
(-0.000762792 9.11581e-05 7.63749e-25)
(-0.000802148 8.56619e-05 7.02901e-25)
(-0.000839106 7.92237e-05 0)
(-0.000872236 7.16847e-05 1.75875e-24)
(-9.74381e-07 8.18985e-06 0)
(-4.48587e-06 2.33802e-05 0)
(-1.02742e-05 3.78598e-05 5.00658e-25)
(-1.83951e-05 5.15888e-05 -1.91284e-24)
(-2.88627e-05 6.45325e-05 3.62588e-24)
(-4.17053e-05 7.6657e-05 -2.57582e-24)
(-5.69506e-05 8.79315e-05 0)
(-7.46094e-05 9.83304e-05 0)
(-9.46723e-05 0.000107833 -2.17063e-24)
(-0.00011711 0.000116424 2.71766e-24)
(-0.000141872 0.000124094 -1.27423e-24)
(-0.000168888 0.000130837 -1.19785e-24)
(-0.000198066 0.000136655 2.24064e-24)
(-0.000229293 0.000141553 -2.08962e-24)
(-0.000262433 0.000145539 -9.74811e-25)
(-0.00029733 0.000148627 0)
(-0.000333806 0.000150832 -3.38815e-24)
(-0.000371661 0.000152171 -3.29895e-27)
(-0.000410674 0.000152661 2.92196e-24)
(-0.000450601 0.000152314 2.604e-27)
(-0.000491173 0.000151141 1.77684e-27)
(-0.000532096 0.000149144 7.8868e-28)
(-0.000573047 0.000146315 -1.06913e-24)
(-0.000613669 0.000142631 1.97532e-24)
(-0.000653565 0.000138056 0)
(-0.000692293 0.000132533 -1.08989e-27)
(-0.000729364 0.000125988 3.06872e-24)
(-0.000764262 0.000118307 -1.40829e-24)
(-0.000796365 0.000109321 -3.86927e-24)
(-0.000823534 9.88603e-05 -3.52738e-24)
(-1.43177e-06 1.03201e-05 1.53143e-24)
(-5.7073e-06 2.94755e-05 -3.16667e-24)
(-1.21048e-05 4.77499e-05 2.01132e-24)
(-2.06761e-05 6.50918e-05 1.92111e-24)
(-3.14338e-05 8.14555e-05 -1.81746e-24)
(-4.44029e-05 9.67964e-05 8.60762e-25)
(-5.96074e-05 0.000111074 -2.44937e-24)
(-7.70546e-05 0.000124253 6.15664e-24)
(-9.67313e-05 0.000136306 -7.19013e-25)
(-0.000118604 0.000147211 1.36638e-24)
(-0.00014262 0.000156954 -1.2826e-24)
(-0.000168703 0.000165527 1.19776e-24)
(-0.000196756 0.000172928 0)
(-0.00022666 0.000179161 0)
(-0.000258272 0.000184237 3.91973e-24)
(-0.000291427 0.00018817 -1.82221e-24)
(-0.000325938 0.000190978 1.69456e-24)
(-0.000361592 0.000192681 1.57471e-24)
(-0.000398155 0.000193297 -2.92731e-24)
(-0.000435365 0.000192844 -4.07048e-24)
(-0.000472934 0.000191331 1.25518e-24)
(-0.000510546 0.00018876 4.64899e-24)
(-0.000547849 0.00018512 -2.14394e-24)
(-0.000584458 0.000180384 5.94675e-27)
(-0.000619942 0.000174504 1.82494e-24)
(-0.000653822 0.00016741 -1.6787e-24)
(-0.000685571 0.000159007 -1.53813e-24)
(-0.000714649 0.000149151 2.7488e-27)
(-0.000740458 0.000137626 1.28419e-24)
(-0.000759839 0.000124316 2.35372e-24)
(-1.97987e-06 1.23002e-05 4.61468e-24)
(-7.17193e-06 3.51507e-05 -1.05975e-24)
(-1.4301e-05 5.69727e-05 0)
(-2.34138e-05 7.77023e-05 -9.67105e-25)
(-3.45203e-05 9.72823e-05 -4.58354e-24)
(-4.76412e-05 0.000115657 5.19984e-24)
(-6.27955e-05 0.000132774 2.4644e-24)
(-7.99854e-05 0.00014859 -1.53772e-24)
(-9.9193e-05 0.000163068 1.46282e-24)
(-0.00012038 0.00017618 -6.84246e-24)
(-0.000143487 0.000187903 3.84974e-24)
(-0.000168434 0.000198226 -1.20379e-24)
(-0.000195115 0.000207144 4.50679e-24)
(-0.000223405 0.000214659 -2.10347e-24)
(-0.000253151 0.000220781 -5.89454e-24)
(-0.000284178 0.000225524 3.65964e-24)
(-0.000316287 0.000228907 -3.40494e-24)
(-0.00034925 0.000230951 -4.05946e-27)
(-0.000382815 0.000231678 -1.47602e-24)
(-0.000416701 0.000231104 -1.36424e-24)
(-0.000450597 0.000229241 5.03889e-24)
(-0.000484158 0.000226088 -4.6547e-24)
(-0.000517002 0.000221632 0)
(-0.000548708 0.000215837 -1.98476e-24)
(-0.000578806 0.000208649 -1.82512e-24)
(-0.000606772 0.000199985 -3.37277e-24)
(-0.000632036 0.000189731 3.09565e-24)
(-0.000654024 0.000177715 0)
(-0.000672209 0.000163674 6.48382e-24)
(-0.000682145 0.000147592 -1.18626e-24)
(-2.60432e-06 1.41056e-05 0)
(-8.84185e-06 4.03364e-05 0)
(-1.68063e-05 6.54164e-05 0)
(-2.65381e-05 8.92691e-05 -6.44735e-27)
(-3.80433e-05 0.000111825 6.45216e-24)
(-5.1337e-05 0.000133016 -5.21997e-24)
(-6.64316e-05 0.00015278 3.29936e-24)
(-8.33226e-05 0.000171061 -6.21355e-24)
(-0.000101986 0.000187813 -1.46771e-24)
(-0.000122377 0.000202998 -2.75422e-24)
(-0.000144428 0.000216588 2.57935e-24)
(-0.000168053 0.000228565 1.21443e-24)
(-0.000193137 0.000238918 7.59226e-27)
(-0.000219545 0.000247647 0)
(-0.000247115 0.000254758 -8.52953e-27)
(-0.000275658 0.000260265 1.83537e-24)
(-0.00030496 0.000264187 -1.70312e-24)
(-0.000334778 0.000266544 1.58497e-24)
(-0.000364839 0.000267358 5.895e-24)
(-0.000394838 0.000266646 -4.32968e-27)
(-0.000424439 0.000264418 -2.53166e-24)
(-0.000453265 0.000260672 -2.33328e-24)
(-0.000480899 0.00025539 -4.96465e-27)
(-0.000506882 0.000248531 -2.00334e-24)
(-0.000530699 0.000240031 -3.67715e-24)
(-0.000551775 0.000229796 5.06536e-24)
(-0.000569492 0.000217698 -1.54437e-24)
(-0.00058323 0.000203542 -2.84341e-24)
(-0.000592612 0.000187044 -5.20264e-24)
(-0.000591584 0.000168247 2.38245e-24)
(-3.28918e-06 1.57165e-05 -4.16643e-24)
(-1.06749e-05 4.49758e-05 0)
(-1.9558e-05 7.29889e-05 -4.11631e-24)
(-2.99708e-05 9.96663e-05 4.87534e-24)
(-4.19145e-05 0.000124926 -5.55855e-24)
(-5.53967e-05 0.000148687 7.01767e-24)
(-7.04214e-05 0.000170875 -6.63059e-24)
(-8.69759e-05 0.000191422 1.55188e-24)
(-0.000105028 0.000210272 2.93163e-24)
(-0.000124524 0.000227377 -5.79313e-27)
(-0.000145389 0.0002427 -5.1961e-24)
(-0.000167525 0.000256214 4.86661e-24)
(-0.00019081 0.000267904 -4.54201e-24)
(-0.000215096 0.000277763 -8.49597e-24)
(-0.000240208 0.000285794 5.93599e-24)
(-0.000265944 0.000292008 1.84116e-24)
(-0.000292072 0.000296421 -5.15369e-24)
(-0.000318331 0.000299054 -3.19654e-24)
(-0.000344425 0.000299925 -2.95328e-24)
(-0.000370024 0.000299052 8.22964e-24)
(-0.000394762 0.00029644 -2.54824e-24)
(-0.000418229 0.000292086 5.33242e-27)
(-0.000439972 0.000285966 -4.34858e-24)
(-0.000459488 0.000278035 7.99958e-24)
(-0.000476216 0.000268219 3.67739e-24)
(-0.000489527 0.000256413 -3.38345e-24)
(-0.000498753 0.000242472 8.08915e-27)
(-0.000503206 0.000226189 2.86027e-24)
(-0.00050282 0.000207328 5.22282e-24)
(-0.000489364 0.000185876 -7.16838e-24)
(-4.01757e-06 1.71179e-05 4.20832e-24)
(-1.26262e-05 4.90257e-05 -5.43716e-24)
(-2.24888e-05 7.96191e-05 -4.14868e-24)
(-3.36283e-05 0.000108796 3.93251e-24)
(-4.60387e-05 0.00013646 3.73808e-24)
(-5.97188e-05 0.000162519 -1.75608e-24)
(-7.46621e-05 0.000186884 0)
(-9.08456e-05 0.000209475 0)
(-0.000108227 0.000230225 1.47635e-24)
(-0.000126742 0.000249073 2.77458e-24)
(-0.000146306 0.000265974 7.82759e-24)
(-0.000166808 0.000280892 -4.88588e-24)
(-0.000188115 0.000293802 -1.25974e-26)
(-0.000210066 0.000304692 4.27246e-24)
(-0.00023247 0.000313559 -1.99161e-24)
(-0.00025511 0.00032041 -3.7061e-24)
(-0.000277736 0.000325257 1.0349e-23)
(-0.000300064 0.000328117 3.19961e-24)
(-0.000321776 0.000329007 8.31575e-27)
(-0.000342514 0.000327941 6.98369e-27)
(-0.00036188 0.000324922 -4.37633e-27)
(-0.000379429 0.000319941 2.35816e-24)
(-0.000394671 0.00031297 6.53243e-24)
(-0.000407056 0.000303958 1.68796e-26)
(-0.000415981 0.000292819 3.7005e-24)
(-0.000420758 0.000279439 -1.02224e-23)
(-0.000420671 0.000263674 -6.25722e-24)
(-0.000414932 0.0002453 2.69725e-27)
(-0.000404022 0.000224087 2.63432e-24)
(-0.000376791 0.000200081 4.7762e-24)
(-4.77225e-06 1.83004e-05 -3.18119e-24)
(-1.46497e-05 5.24573e-05 5.47709e-24)
(-2.55297e-05 8.52584e-05 -2.09906e-24)
(-3.74235e-05 0.000116588 5.96762e-24)
(-5.03168e-05 0.000146338 -3.75946e-24)
(-6.41969e-05 0.0001744 -1.77353e-24)
(-7.9045e-05 0.000200674 -6.72969e-24)
(-9.48257e-05 0.000225066 6.33219e-24)
(-0.000111484 0.000247496 -2.99216e-24)
(-0.000128944 0.000267892 0)
(-0.000147106 0.000286197 -5.25621e-24)
(-0.000165849 0.000302365 4.91542e-24)
(-0.000185023 0.000316361 -2.30829e-24)
(-0.000204452 0.000328167 4.29109e-24)
(-0.000223931 0.000337771 1.99622e-24)
(-0.000243222 0.000345175 0)
(-0.000262056 0.000350385 1.74579e-26)
(-0.000280126 0.000353415 0)
(-0.000297088 0.000354276 1.40804e-26)
(-0.000312555 0.000352978 5.54193e-24)
(-0.000326098 0.000349521 5.13576e-24)
(-0.000337236 0.000343891 2.36986e-24)
(-0.000345439 0.000336053 -1.31105e-23)
(-0.000350117 0.000325949 7.70786e-27)
(-0.000350618 0.000313491 0)
(-0.000346207 0.000298549 6.84041e-24)
(-0.000336108 0.000280958 -5.95089e-27)
(-0.000319356 0.000260519 8.66998e-24)
(-0.000297375 0.000236993 0)
(-0.000255251 0.000210574 -4.80283e-24)
(-5.5362e-06 1.92595e-05 1.08717e-24)
(-1.66998e-05 5.52559e-05 2.22637e-24)
(-2.86115e-05 8.98798e-05 4.21744e-24)
(-4.12694e-05 0.000123003 -1.20204e-23)
(-5.46483e-05 0.000154503 5.67724e-24)
(-6.87223e-05 0.000184259 -5.38109e-24)
(-8.34579e-05 0.000212156 1.35506e-23)
(-9.88049e-05 0.000238088 -6.37975e-24)
(-0.000114694 0.000261961 6.00587e-24)
(-0.000131033 0.000283691 0)
(-0.000147709 0.000303207 0)
(-0.000164584 0.000320453 7.43441e-24)
(-0.000181492 0.000335385 4.08787e-27)
(-0.00019824 0.000347974 -4.31647e-24)
(-0.000214604 0.000358201 1.01643e-26)
(-0.000230328 0.000366059 -1.17243e-26)
(-0.000245118 0.00037155 -6.96034e-24)
(-0.000258644 0.000374678 3.23438e-24)
(-0.000270534 0.000375452 -2.99384e-24)
(-0.000280373 0.000373876 2.78826e-24)
(-0.000287697 0.000369945 -1.02792e-23)
(-0.000291994 0.000363637 -9.5257e-24)
(-0.000292695 0.000354921 4.40036e-24)
(-0.000289171 0.000343723 8.11116e-24)
(-0.000280725 0.000329945 -3.74056e-24)
(-0.000266568 0.000313448 -3.42801e-24)
(-0.000245876 0.000294046 0)
(-0.000217354 0.000271574 -5.78458e-24)
(-0.000183832 0.000245639 0)
(-0.000126298 0.000217555 7.22991e-24)
(-6.29318e-06 1.99958e-05 -2.15301e-24)
(-1.87324e-05 5.74205e-05 6.72916e-24)
(-3.16673e-05 9.34782e-05 -8.48626e-24)
(-4.50806e-05 0.000128028 -1.84063e-26)
(-5.89342e-05 0.000160935 3.8279e-24)
(-7.31867e-05 0.000192063 -9.04352e-24)
(-8.77875e-05 0.000221285 6.82559e-24)
(-0.000102669 0.000248481 0)
(-0.000117745 0.000273544 3.03856e-24)
(-0.000132907 0.000296377 -8.52665e-24)
(-0.000148023 0.000316895 0)
(-0.000162937 0.000335032 -9.96538e-24)
(-0.000177466 0.000350732 4.65384e-24)
(-0.000191396 0.000363956 -4.35772e-24)
(-0.000204485 0.000374676 -4.0261e-24)
(-0.000216452 0.000382875 7.52501e-24)
(-0.000226981 0.000388548 0)
(-0.000235714 0.000391693 3.26044e-24)
(-0.000242253 0.000392312 6.03293e-24)
(-0.000246154 0.0003904 -1.11867e-23)
(-0.00024692 0.000385956 5.17084e-24)
(-0.00024401 0.000378949 -4.7888e-24)
(-0.000236814 0.000369333 -4.41245e-24)
(-0.000224659 0.000357035 -4.06861e-24)
(-0.000206809 0.000341945 -7.35285e-27)
(-0.000182435 0.00032392 0)
(-0.000150696 0.000302764 -6.35281e-24)
(-0.000109886 0.000278449 0)
(-6.37599e-05 0.000249458 0)
(8.65243e-06 0.000220808 4.87199e-24)
(-7.02818e-06 2.05144e-05 2.19788e-24)
(-2.07065e-05 5.89626e-05 -2.27113e-24)
(-3.46338e-05 9.60679e-05 -1.07382e-23)
(-4.87756e-05 0.000131678 1.01812e-23)
(-6.30787e-05 0.000165643 -9.64925e-24)
(-7.74838e-05 0.000197817 1.09619e-23)
(-9.1921e-05 0.000228057 -6.8887e-24)
(-0.000106303 0.000256231 1.29685e-23)
(-0.000120524 0.000282219 -6.09355e-24)
(-0.000134456 0.00030591 2.85005e-24)
(-0.000147946 0.000327208 2.67182e-24)
(-0.000160819 0.000346032 -5.03114e-24)
(-0.000172871 0.000362317 0)
(-0.000183868 0.000376012 4.37104e-24)
(-0.000193542 0.000387079 1.1355e-26)
(-0.000201589 0.000395492 7.5903e-24)
(-0.000207667 0.000401237 -7.05277e-24)
(-0.000211392 0.000404303 3.27796e-24)
(-0.000212339 0.00040469 -6.04715e-24)
(-0.000210035 0.000402387 1.12147e-23)
(-0.000203956 0.00039738 0)
(-0.000193518 0.000389638 0)
(-0.000178078 0.000379107 8.85289e-24)
(-0.000156925 0.000365707 4.07819e-24)
(-0.000129277 0.00034932 -7.52772e-24)
(-9.42585e-05 0.0003298 -3.47502e-24)
(-5.09835e-05 0.000306957 6.35317e-24)
(2.0665e-06 0.000280728 5.85252e-24)
(6.18759e-05 0.000248907 5.37369e-24)
(0.000149497 0.000219464 -4.84817e-24)
(-7.72771e-06 2.08242e-05 -1.10354e-23)
(-2.25848e-05 5.99048e-05 2.27112e-24)
(-3.74528e-05 9.76813e-05 0)
(-5.22784e-05 0.00013399 0)
(-6.6991e-05 0.000168669 -7.79603e-24)
(-8.15115e-05 0.000201559 3.69555e-24)
(-9.5748e-05 0.000232507 0)
(-0.000109591 0.000261367 0)
(-0.000122913 0.000288005 -3.06035e-24)
(-0.000135563 0.000312299 8.65572e-24)
(-0.000147367 0.00033414 -1.94385e-26)
(-0.000158128 0.000353435 2.53377e-24)
(-0.000167618 0.000370108 -1.58806e-26)
(-0.000175577 0.000384097 -8.78406e-24)
(-0.000181712 0.000395351 8.20692e-24)
(-0.000185694 0.000403838 2.16486e-26)
(-0.000187154 0.000409532 3.53165e-24)
(-0.000185683 0.000412418 1.31611e-23)
(-0.000180829 0.000412486 -1.82765e-23)
(-0.00017209 0.000409721 0)
(-0.000158907 0.000404102 0)
(-0.000140664 0.000395591 9.65003e-24)
(-0.000116681 0.000384129 -4.44887e-24)
(-8.6211e-05 0.000369627 4.10875e-24)
(-4.84331e-05 0.00035196 -3.77683e-24)
(-2.42524e-06 0.000330974 2.08483e-23)
(5.27333e-05 0.000306457 -1.55801e-27)
(0.00011843 0.000278261 -8.78395e-24)
(0.00019211 0.000244408 1.43491e-26)
(0.000295594 0.000213258 9.75502e-24)
(-8.38007e-06 2.09374e-05 -6.68824e-24)
(-2.4334e-05 6.02788e-05 9.22196e-24)
(-4.00718e-05 9.8365e-05 0)
(-5.55192e-05 0.000135022 -8.3131e-24)
(-7.05865e-05 0.000170078 3.91322e-24)
(-8.51721e-05 0.00020336 0)
(-9.91604e-05 0.000234704 3.51712e-24)
(-0.000112418 0.000263954 -3.30933e-24)
(-0.000124792 0.000290963 -3.08389e-24)
(-0.000136106 0.000315599 -2.89291e-24)
(-0.000146164 0.000337737 2.70949e-24)
(-0.000154744 0.000357278 -1.0171e-23)
(-0.000161588 0.000374131 9.49646e-24)
(-0.00016641 0.000388223 4.4412e-24)
(-0.000168889 0.000399494 -8.24464e-24)
(-0.000168673 0.000407902 2.18018e-26)
(-0.000165367 0.000413414 -7.11988e-24)
(-0.000158536 0.000416007 -6.58704e-24)
(-0.000147696 0.000415664 6.10928e-24)
(-0.000132313 0.000412364 5.66726e-24)
(-0.000111798 0.000406078 1.04881e-23)
(-8.5501e-05 0.000396765 -9.66931e-24)
(-5.27106e-05 0.000384357 0)
(-1.26439e-05 0.000368759 -8.22332e-24)
(3.55564e-05 0.000349839 -3.80056e-24)
(9.28513e-05 0.000327435 -3.46377e-24)
(0.000160191 0.000301308 9.60712e-24)
(0.000238921 0.000271278 -5.87338e-24)
(0.000326648 0.000235514 -5.34496e-24)
(0.000446388 0.000202706 4.90693e-24)
(-8.97544e-06 2.08687e-05 -2.24452e-24)
(-2.59261e-05 6.01234e-05 2.34158e-24)
(-4.24453e-05 9.81778e-05 -2.22408e-24)
(-5.84365e-05 0.000134849 -2.10803e-24)
(-7.37882e-05 0.000169955 3.95117e-24)
(-8.83745e-05 0.000203314 1.12606e-23)
(-0.000102054 0.00023475 -1.413e-23)
(-0.000114667 0.000264095 3.3094e-24)
(-0.000126034 0.000291194 -3.10731e-24)
(-0.000135955 0.000315901 1.17052e-23)
(-0.000144203 0.000338093 -1.09578e-23)
(-0.000150522 0.000357647 5.10617e-24)
(-0.00015463 0.000374461 -1.43362e-23)
(-0.000156216 0.000388456 -8.90503e-24)
(-0.000154933 0.000399563 1.65914e-23)
(-0.0001504 0.000407732 3.86349e-24)
(-0.000142192 0.000412923 -1.43398e-23)
(-0.000129843 0.000415105 1.32926e-23)
(-0.00011284 0.000414253 -6.15228e-24)
(-9.06176e-05 0.00041034 -5.70297e-24)
(-6.25559e-05 0.000403334 2.11744e-26)
(-2.79748e-05 0.000393186 0)
(1.38705e-05 0.000379825 4.48799e-24)
(6.37947e-05 0.000363149 0)
(0.000122688 0.000343018 7.59036e-24)
(0.000191546 0.000319262 1.89087e-26)
(0.000271343 0.000291625 0)
(0.000363432 0.000259912 1.4012e-26)
(0.000465402 0.000222267 -5.36235e-24)
(0.000601704 0.000188126 4.9151e-24)
(-9.5064e-06 2.0635e-05 0)
(-2.7339e-05 5.94835e-05 -2.34158e-24)
(-4.45367e-05 9.71879e-05 -6.71525e-24)
(-6.09791e-05 0.000133558 1.48382e-23)
(-7.6531e-05 0.000168403 -1.2037e-23)
(-9.10404e-05 0.000201532 -3.76209e-24)
(-0.000104338 0.000232763 1.06756e-23)
(-0.000116236 0.000261918 -3.36525e-24)
(-0.000126525 0.000288832 3.1568e-24)
(-0.000134974 0.000313351 -5.90004e-24)
(-0.000141328 0.000335334 5.51727e-24)
(-0.000145302 0.000354658 -5.15971e-24)
(-0.000146586 0.000371213 -3.24257e-26)
(-0.000144837 0.000384908 4.58946e-27)
(-0.000139681 0.000395669 4.18893e-24)
(-0.000130703 0.000403436 0)
(-0.000117449 0.000408162 7.17777e-24)
(-9.94223e-05 0.00040981 -6.65536e-24)
(-7.60789e-05 0.000408349 0)
(-4.68231e-05 0.000403749 5.70267e-24)
(-1.10038e-05 0.00039597 8.08554e-27)
(3.209e-05 0.000384962 -4.87694e-24)
(8.32337e-05 0.000370649 -1.34926e-23)
(0.000143272 0.000352925 -8.2945e-24)
(0.000213125 0.000331643 0)
(0.000293818 0.000306628 -6.99951e-24)
(0.000386346 0.000277606 0)
(0.000492094 0.000244375 -5.90025e-24)
(0.000608502 0.000204942 0)
(0.000761664 0.000169839 -9.74901e-24)
(-9.96723e-06 2.02544e-05 0)
(-2.85541e-05 5.84082e-05 0)
(-4.63134e-05 9.54711e-05 0)
(-6.30992e-05 0.000131247 -8.55431e-24)
(-7.87509e-05 0.000165537 1.21107e-23)
(-9.30887e-05 0.000198147 -7.63469e-24)
(-0.000105913 0.000228884 3.61016e-24)
(-0.000117007 0.000257568 6.75895e-24)
(-0.000126128 0.000284023 0)
(-0.000133017 0.000308089 -5.96732e-24)
(-0.000137384 0.000329618 1.1115e-23)
(-0.000138916 0.000348478 -1.26947e-26)
(-0.00013727 0.000364553 -6.10976e-27)
(-0.000132072 0.000377746 -4.49792e-24)
(-0.000122914 0.000387975 4.20987e-24)
(-0.00010935 0.000395173 0)
(-9.08953e-05 0.00039929 -1.44839e-23)
(-6.70201e-05 0.000400282 1.34097e-23)
(-3.71489e-05 0.000398116 -6.21081e-24)
(-6.54746e-07 0.000392756 0)
(4.31445e-05 0.000384162 -5.29766e-24)
(9.499e-05 0.000372279 4.89474e-24)
(0.000155687 0.000357029 4.49764e-24)
(0.000226107 0.000338305 4.13249e-24)
(0.000307198 0.000315957 0)
(0.000400009 0.000289801 7.03182e-24)
(0.000505552 0.00025955 0)
(0.000625247 0.000225 0)
(0.000756289 0.000183939 5.48193e-24)
(0.00092664 0.000148273 9.72574e-24)
(-1.03538e-05 1.97448e-05 0)
(-2.9557e-05 5.6947e-05 0)
(-4.77484e-05 9.31043e-05 0)
(-6.47554e-05 0.000128017 8.63667e-24)
(-8.03906e-05 0.000161482 8.1601e-24)
(-9.44447e-05 0.000193298 -1.15735e-23)
(-0.000106687 0.000223272 3.63791e-24)
(-0.000116868 0.000251216 -6.79112e-24)
(-0.000124715 0.00027695 6.39136e-24)
(-0.000129932 0.000300309 -1.20005e-23)
(-0.000132199 0.00032114 1.6535e-26)
(-0.000131169 0.000339304 1.64494e-26)
(-0.000126466 0.000354683 4.90229e-24)
(-0.000117681 0.000367172 0)
(-0.000104372 0.000376687 -1.26476e-23)
(-8.6061e-05 0.000383155 7.84941e-24)
(-6.22281e-05 0.000386522 7.25395e-24)
(-3.23118e-05 0.000386744 -6.75401e-24)
(4.29664e-06 0.000383782 6.24827e-24)
(4.82563e-05 0.0003776 -5.75764e-24)
(0.00010028 0.000368158 1.0642e-23)
(0.00016114 0.0003554 -4.91221e-24)
(0.000231668 0.000339249 0)
(0.000312762 0.000319597 1.66402e-23)
(0.000405391 0.000296293 -1.53356e-23)
(0.000510627 0.000269151 2.58835e-27)
(0.000629477 0.000237867 -6.46481e-24)
(0.000763406 0.000202243 -5.92085e-24)
(0.000909299 0.000159765 -5.41852e-24)
(0.00109718 0.000123982 0)
(-1.06633e-05 1.91238e-05 0)
(-3.03367e-05 5.51479e-05 0)
(-4.88195e-05 9.01639e-05 4.57695e-24)
(-6.59115e-05 0.00012397 -8.68224e-24)
(-8.13973e-05 0.00015636 -8.23563e-24)
(-9.50369e-05 0.000187131 1.16448e-23)
(-0.000106568 0.000216087 -3.67431e-24)
(-0.000115706 0.000243039 -6.8747e-24)
(-0.000122145 0.000267804 3.23748e-24)
(-0.000125556 0.000290214 0)
(-0.000125584 0.000310113 1.12797e-23)
(-0.000121845 0.000327361 -1.05486e-23)
(-0.000113928 0.000341834 0)
(-0.00010139 0.000353428 0)
(-8.37534e-05 0.000362054 -4.26148e-24)
(-6.05031e-05 0.000367639 -7.90968e-24)
(-3.10858e-05 0.000370126 7.33139e-24)
(5.09498e-06 0.000369471 6.75404e-24)
(4.86818e-05 0.000365636 -1.25248e-23)
(0.000100366 0.000358586 -5.79797e-24)
(0.000160894 0.00034828 5.35042e-24)
(0.000231064 0.000334668 -4.91989e-24)
(0.000311735 0.000317675 4.54098e-24)
(0.000403828 0.000297196 0)
(0.000508327 0.000273081 -2.1245e-27)
(0.000626307 0.000245146 2.11584e-23)
(0.000758771 0.000213071 -6.47403e-24)
(0.000907234 0.000176664 0)
(0.00106819 0.000133034 1.08726e-23)
(0.00127394 9.76452e-05 -9.72121e-24)
(-1.08937e-05 1.84075e-05 0)
(-3.08841e-05 5.30568e-05 -9.79546e-24)
(-4.95069e-05 8.6723e-05 9.25859e-24)
(-6.65339e-05 0.000119204 4.41741e-24)
(-8.17204e-05 0.000150293 -8.32336e-24)
(-9.4795e-05 0.000179789 -3.89762e-24)
(-0.000105462 0.000207494 1.84367e-23)
(-0.000113402 0.00023322 -1.7343e-23)
(-0.000118276 0.000256784 9.77832e-24)
(-0.000119716 0.000278019 6.11106e-24)
(-0.000117333 0.000296767 5.71034e-24)
(-0.000110706 0.00031289 0)
(-9.93881e-05 0.000326264 -9.87893e-24)
(-8.28966e-05 0.000336784 9.21353e-24)
(-6.07177e-05 0.00034436 1.28001e-23)
(-3.23002e-05 0.000348922 -7.98921e-24)
(2.94602e-06 0.000350415 3.96035e-26)
(4.56534e-05 0.000348795 -6.79558e-24)
(9.64995e-05 0.000344027 6.27075e-24)
(0.000156209 0.00033608 5.79814e-24)
(0.000225559 0.000324919 1.99824e-26)
(0.000305376 0.0003105 0)
(0.000396542 0.000292753 9.11334e-24)
(0.000499994 0.00027158 0)
(0.000616714 0.00024684 7.70049e-24)
(0.00074778 0.00021835 1.32043e-26)
(0.000894181 0.00018577 6.46989e-24)
(0.00105747 0.000148923 -9.0643e-27)
(0.00123368 0.000104463 -2.16783e-23)
(0.00145755 7.00495e-05 1.46371e-23)
(-1.10438e-05 1.76107e-05 0)
(-3.11915e-05 5.07153e-05 -9.89328e-24)
(-4.97925e-05 8.28494e-05 2.34541e-23)
(-6.65901e-05 0.000113812 -4.42924e-24)
(-8.13096e-05 0.000143399 0)
(-9.36474e-05 0.000171411 3.65448e-26)
(-0.000103273 0.000197653 1.48811e-23)
(-0.000109834 0.00022194 -1.40024e-23)
(-0.000112953 0.000244092 -6.5143e-24)
(-0.000112228 0.000263944 6.17476e-24)
(-0.000107229 0.000281343 -2.29164e-23)
(-9.74996e-05 0.000296152 2.67566e-23)
(-8.2552e-05 0.00030825 -1.99214e-23)
(-6.18673e-05 0.000317534 4.62953e-24)
(-3.48919e-05 0.000323919 -8.59067e-24)
(-1.03668e-06 0.000327339 7.98022e-24)
(4.03267e-05 0.000327741 7.44367e-24)
(8.98677e-05 0.000325089 -6.8286e-24)
(0.000148299 0.000319352 6.30064e-24)
(0.000216381 0.000310506 -5.82638e-24)
(0.000294917 0.000298527 1.82027e-26)
(0.000384762 0.000283376 0)
(0.000486815 0.000264999 -9.11218e-24)
(0.000602008 0.000243309 2.12897e-26)
(0.000731326 0.00021817 1.84068e-26)
(0.000875836 0.000189407 7.07683e-24)
(0.00103649 0.00015666 -6.49095e-24)
(0.00121485 0.00011977 1.18847e-23)
(0.00140644 7.48523e-05 1.08869e-23)
(0.00164857 4.2065e-05 0)
(-1.1112e-05 1.67459e-05 9.69849e-24)
(-3.12507e-05 4.81604e-05 -2.51274e-24)
(-4.96575e-05 7.86037e-05 0)
(-6.60465e-05 0.000107879 -4.46628e-24)
(-8.01127e-05 0.000135785 0)
(-9.15198e-05 0.000162128 -3.97632e-24)
(-9.99031e-05 0.000186718 0)
(-0.000104874 0.000209375 -1.05518e-23)
(-0.000106018 0.000229927 -6.55195e-24)
(-0.000102895 0.000248212 1.86014e-23)
(-9.50393e-05 0.000264084 5.75533e-24)
(-8.19524e-05 0.000277412 -1.61271e-23)
(-6.31079e-05 0.000288079 3.1448e-26)
(-3.79467e-05 0.00029599 2.33016e-23)
(-5.87565e-06 0.000301067 -2.91012e-26)
(3.37343e-05 0.000303248 -1.60939e-23)
(8.15505e-05 0.000302491 -7.41242e-24)
(0.00013828 0.000298766 0)
(0.000204672 0.000292052 6.33542e-24)
(0.000281519 0.000282337 5.85064e-24)
(0.000369653 0.000269607 -1.08241e-23)
(0.000469946 0.000253839 0)
(0.000583297 0.000234996 -9.16548e-24)
(0.000710645 0.000213004 -8.39799e-24)
(0.000852954 0.000187741 -7.71038e-24)
(0.00101125 0.000159036 -7.05577e-24)
(0.00118643 0.000126512 6.49957e-24)
(0.00138004 9.00232e-05 -1.18792e-23)
(0.00158704 4.50714e-05 1.21539e-26)
(0.00184732 1.46151e-05 9.66175e-24)
(-1.10966e-05 1.58237e-05 0)
(-3.10527e-05 4.54232e-05 -2.58605e-26)
(-4.9081e-05 7.40385e-05 -1.4386e-23)
(-6.48665e-05 0.000101479 4.51785e-24)
(-7.80735e-05 0.000127548 0)
(-8.83324e-05 0.00015206 2.01648e-23)
(-9.52441e-05 0.000174834 -3.4149e-23)
(-9.83834e-05 0.000195696 7.13703e-24)
(-9.72993e-05 0.000214482 -1.33219e-23)
(-9.15138e-05 0.000231041 6.28274e-24)
(-8.05196e-05 0.000245235 0)
(-6.37798e-05 0.000256939 0)
(-4.0727e-05 0.000266049 -5.07229e-24)
(-1.07612e-05 0.000272477 4.7129e-24)
(2.67515e-05 0.000276155 0)
(7.2481e-05 0.000277032 8.05275e-24)
(0.000127134 0.000275077 0)
(0.000191456 0.00027027 1.3829e-23)
(0.000266231 0.000262605 -6.39481e-24)
(0.000352282 0.000252084 0)
(0.00045046 0.00023871 -5.45716e-24)
(0.000561646 0.000222481 0)
(0.000686743 0.000203377 1.8355e-23)
(0.000826672 0.000181346 8.44279e-24)
(0.000982354 0.000156279 7.74691e-24)
(0.00115475 0.000128017 0)
(0.00134465 9.61534e-05 1.5389e-26)
(0.00155355 6.05571e-05 5.95733e-24)
(0.00177583 1.60377e-05 -1.08883e-23)
(0.00205378 -1.13562e-05 -9.65636e-24)
(-1.09947e-05 1.48521e-05 9.90177e-24)
(-3.05859e-05 4.25287e-05 -2.59176e-24)
(-4.80385e-05 6.91977e-05 -4.96196e-26)
(-6.30088e-05 9.46754e-05 1.37017e-23)
(-7.51298e-05 0.000118775 -1.29964e-23)
(-8.39993e-05 0.000141317 -4.05215e-24)
(-8.91829e-05 0.000162132 -3.61722e-26)
(-9.02192e-05 0.000181058 -3.30343e-26)
(-8.66199e-05 0.000197942 0)
(-7.78677e-05 0.000212642 -1.25635e-23)
(-6.34152e-05 0.000225033 1.75939e-23)
(-4.26854e-05 0.000235003 -1.09656e-23)
(-1.50695e-05 0.000242458 1.0184e-23)
(2.00742e-05 0.000247324 -4.71321e-24)
(6.3421e-05 0.000249546 0)
(0.000115682 0.000249087 8.15659e-24)
(0.000177603 0.000245928 -3.91237e-26)
(0.000249966 0.000240067 -6.92645e-24)
(0.00033359 0.000231514 6.40127e-24)
(0.000429316 0.000220291 -5.92579e-24)
(0.000538012 0.000206421 2.17791e-23)
(0.000660566 0.000189927 -2.00346e-23)
(0.000797868 0.000170812 9.22305e-24)
(0.000950795 0.000149049 -3.38117e-23)
(0.0011202 0.000124552 -1.54806e-23)
(0.00130693 9.71696e-05 2.51083e-26)
(0.00151162 6.64592e-05 1.30456e-23)
(0.00173565 3.22829e-05 1.78642e-23)
(0.0019729 -1.12994e-05 -5.4556e-24)
(0.0022675 -3.49271e-05 0)
(-1.08025e-05 1.38371e-05 -1.00076e-23)
(-2.98354e-05 3.94965e-05 -5.48121e-26)
(-4.65008e-05 6.41166e-05 4.86408e-24)
(-6.04258e-05 8.75227e-05 4.59038e-24)
(-7.12128e-05 0.000109537 -2.18374e-23)
(-7.84262e-05 0.000129994 3.28931e-23)
(-8.15971e-05 0.000148734 -2.31889e-23)
(-8.02278e-05 0.000165609 3.62605e-23)
(-7.37921e-05 0.000180479 -1.36043e-23)
(-6.17329e-05 0.000193218 -1.90487e-23)
(-4.34637e-05 0.000203713 1.18919e-23)
(-1.83661e-05 0.000211868 4.43763e-26)
(1.42102e-05 0.000217605 5.17328e-24)
(5.49484e-05 0.000220865 0)
(0.000104566 0.000221609 8.81841e-24)
(0.000163813 0.000219817 -8.14837e-24)
(0.000233475 0.000215489 1.51391e-23)
(0.000314368 0.000208639 -6.97008e-24)
(0.000407332 0.000199303 -6.43309e-24)
(0.000513232 0.000187522 -5.92874e-24)
(0.000632946 0.000173346 -1.63406e-23)
(0.000767351 0.000156824 2.01108e-23)
(0.000917303 0.000137992 9.21745e-24)
(0.00108361 0.000116853 -6.46035e-26)
(0.00126702 9.33474e-05 -2.76682e-26)
(0.00146821 6.73362e-05 0)
(0.00168761 3.83311e-05 2.76648e-26)
(0.00192637 6.13629e-06 -2.3838e-23)
(0.00217802 -3.59769e-05 5.35187e-24)
(0.00248748 -5.52554e-05 -9.83674e-24)
(-1.05145e-05 1.27825e-05 8.76594e-27)
(-2.87826e-05 3.63407e-05 1.56212e-23)
(-4.44327e-05 5.88225e-05 0)