/*--------------------------------*- C++ -*----------------------------------*\
| =========                 |                                                 |
| \\      /  F ield         | foam-extend: Open Source CFD                    |
|  \\    /   O peration     | Version:     4.0                                |
|   \\  /    A nd           | Web:         http://www.foam-extend.org         |
|    \\/     M anipulation  |                                                 |
\*---------------------------------------------------------------------------*/
FoamFile
{
    version     2.0;
    format      ascii;
    class       regIOobject;
    location    "75/uniform";
    object      profilingInfo;
}
// * * * * * * * * * * * * * * * * * * * * * * * * * * * * * * * * * * * * * //

profilingInfo
(

    {
        id              15;
        parentId        11;
        description     "Foam::Time::writeObject - outputTime";
        calls           14;
        totalTime       2.2443;
        childTime       0;
        onStack         1;
    }

    {
        id              11;
        parentId        1;
        description     "Foam::Time::writeObject";
        calls           14000;
        totalTime       2.30512;
        childTime       2.2443;
        onStack         1;
    }

    {
        id              1;
        description     "application::main";
        calls           1;
        totalTime       6800.78;
        childTime       5723.35;
        onStack         1;
    }

    {
        id              14;
        parentId        12;
        description     "FO::forces::execute";
        calls           13999;
        totalTime       0.028564;
        childTime       0;
        onStack         0;
    }

    {
        id              5;
        parentId        3;
        description     "FO::forces::start";
        calls           1;
        totalTime       0.000133;
        childTime       0;
        onStack         0;
    }

    {
        id              13;
        parentId        12;
        description     "FO::pressProbes::execute";
        calls           13999;
        totalTime       0.765535;
        childTime       0;
        onStack         0;
    }

    {
        id              4;
        parentId        3;
        description     "FO::pressProbes::start";
        calls           1;
        totalTime       0.002494;
        childTime       0;
        onStack         0;
    }

    {
        id              3;
        parentId        2;
        description     "functionObjectList::read";
        calls           1;
        totalTime       0.013948;
        childTime       0.002627;
        onStack         0;
    }

    {
        id              12;
        parentId        1;
        description     "functionObjects_.execute()";
        calls           13999;
        totalTime       0.860098;
        childTime       0.794099;
        onStack         0;
    }

    {
        id              2;
        parentId        1;
        description     "functionObjects_.start()";
        calls           1;
        totalTime       0.013956;
        childTime       0.013948;
        onStack         0;
    }

    {
        id              6;
        parentId        1;
        description     "fvMatrix::solve_U";
        calls           14000;
        totalTime       3706.26;
        childTime       3684.28;
        onStack         0;
    }

    {
        id              9;
        parentId        1;
        description     "fvMatrix::solve_p";
        calls           28000;
        totalTime       2013.91;
        childTime       2003.61;
        onStack         0;
    }

    {
        id              7;
        parentId        6;
        description     "lduMatrix::solver_Ux";
        calls           14000;
        totalTime       48.1847;
        childTime       0;
        onStack         0;
    }

    {
        id              8;
        parentId        6;
        description     "lduMatrix::solver_Uy";
        calls           14000;
        totalTime       3636.09;
        childTime       0;
        onStack         0;
    }

    {
        id              10;
        parentId        9;
        description     "lduMatrix::solver_p";
        calls           28000;
        totalTime       2003.61;
        childTime       0;
        onStack         0;
    }
);


// ************************************************************************* //
