/*--------------------------------*- C++ -*----------------------------------*\
| =========                 |                                                 |
| \\      /  F ield         | foam-extend: Open Source CFD                    |
|  \\    /   O peration     | Version:     4.0                                |
|   \\  /    A nd           | Web:         http://www.foam-extend.org         |
|    \\/     M anipulation  |                                                 |
\*---------------------------------------------------------------------------*/
FoamFile
{
    version     2.0;
    format      ascii;
    class       regIOobject;
    location    "60/uniform";
    object      profilingInfo;
}
// * * * * * * * * * * * * * * * * * * * * * * * * * * * * * * * * * * * * * //

profilingInfo
(

    {
        id              15;
        parentId        11;
        description     "Foam::Time::writeObject - outputTime";
        calls           11;
        totalTime       1.71674;
        childTime       0;
        onStack         1;
    }

    {
        id              11;
        parentId        1;
        description     "Foam::Time::writeObject";
        calls           11000;
        totalTime       1.76455;
        childTime       1.71674;
        onStack         1;
    }

    {
        id              1;
        description     "application::main";
        calls           1;
        totalTime       6072.36;
        childTime       5205.01;
        onStack         1;
    }

    {
        id              14;
        parentId        12;
        description     "FO::forces::execute";
        calls           10999;
        totalTime       0.022534;
        childTime       0;
        onStack         0;
    }

    {
        id              5;
        parentId        3;
        description     "FO::forces::start";
        calls           1;
        totalTime       0.000133;
        childTime       0;
        onStack         0;
    }

    {
        id              13;
        parentId        12;
        description     "FO::pressProbes::execute";
        calls           10999;
        totalTime       0.594055;
        childTime       0;
        onStack         0;
    }

    {
        id              4;
        parentId        3;
        description     "FO::pressProbes::start";
        calls           1;
        totalTime       0.002494;
        childTime       0;
        onStack         0;
    }

    {
        id              3;
        parentId        2;
        description     "functionObjectList::read";
        calls           1;
        totalTime       0.013948;
        childTime       0.002627;
        onStack         0;
    }

    {
        id              12;
        parentId        1;
        description     "functionObjects_.execute()";
        calls           10999;
        totalTime       0.667541;
        childTime       0.616589;
        onStack         0;
    }

    {
        id              2;
        parentId        1;
        description     "functionObjects_.start()";
        calls           1;
        totalTime       0.013956;
        childTime       0.013948;
        onStack         0;
    }

    {
        id              6;
        parentId        1;
        description     "fvMatrix::solve_U";
        calls           11000;
        totalTime       3683.13;
        childTime       3665.41;
        onStack         0;
    }

    {
        id              9;
        parentId        1;
        description     "fvMatrix::solve_p";
        calls           22000;
        totalTime       1519.43;
        childTime       1511.26;
        onStack         0;
    }

    {
        id              7;
        parentId        6;
        description     "lduMatrix::solver_Ux";
        calls           11000;
        totalTime       42.4344;
        childTime       0;
        onStack         0;
    }

    {
        id              8;
        parentId        6;
        description     "lduMatrix::solver_Uy";
        calls           11000;
        totalTime       3622.97;
        childTime       0;
        onStack         0;
    }

    {
        id              10;
        parentId        9;
        description     "lduMatrix::solver_p";
        calls           22000;
        totalTime       1511.26;
        childTime       0;
        onStack         0;
    }
);


// ************************************************************************* //
