/*--------------------------------*- C++ -*----------------------------------*\
| =========                 |                                                 |
| \\      /  F ield         | foam-extend: Open Source CFD                    |
|  \\    /   O peration     | Version:     4.0                                |
|   \\  /    A nd           | Web:         http://www.foam-extend.org         |
|    \\/     M anipulation  |                                                 |
\*---------------------------------------------------------------------------*/
FoamFile
{
    version     2.0;
    format      ascii;
    class       regIOobject;
    location    "10/uniform";
    object      profilingInfo;
}
// * * * * * * * * * * * * * * * * * * * * * * * * * * * * * * * * * * * * * //

profilingInfo
(

    {
        id              15;
        parentId        11;
        description     "Foam::Time::writeObject - outputTime";
        calls           1;
        totalTime       0.117193;
        childTime       0;
        onStack         1;
    }

    {
        id              11;
        parentId        1;
        description     "Foam::Time::writeObject";
        calls           1000;
        totalTime       0.121567;
        childTime       0.117193;
        onStack         1;
    }

    {
        id              1;
        description     "application::main";
        calls           1;
        totalTime       177.949;
        childTime       110.08;
        onStack         1;
    }

    {
        id              14;
        parentId        12;
        description     "FO::forces::execute";
        calls           999;
        totalTime       0.002011;
        childTime       0;
        onStack         0;
    }

    {
        id              5;
        parentId        3;
        description     "FO::forces::start";
        calls           1;
        totalTime       0.000133;
        childTime       0;
        onStack         0;
    }

    {
        id              13;
        parentId        12;
        description     "FO::pressProbes::execute";
        calls           999;
        totalTime       0.048462;
        childTime       0;
        onStack         0;
    }

    {
        id              4;
        parentId        3;
        description     "FO::pressProbes::start";
        calls           1;
        totalTime       0.002494;
        childTime       0;
        onStack         0;
    }

    {
        id              3;
        parentId        2;
        description     "functionObjectList::read";
        calls           1;
        totalTime       0.013948;
        childTime       0.002627;
        onStack         0;
    }

    {
        id              12;
        parentId        1;
        description     "functionObjects_.execute()";
        calls           999;
        totalTime       0.054437;
        childTime       0.050473;
        onStack         0;
    }

    {
        id              2;
        parentId        1;
        description     "functionObjects_.start()";
        calls           1;
        totalTime       0.013956;
        childTime       0.013948;
        onStack         0;
    }

    {
        id              6;
        parentId        1;
        description     "fvMatrix::solve_U";
        calls           1000;
        totalTime       9.34752;
        childTime       7.77661;
        onStack         0;
    }

    {
        id              9;
        parentId        1;
        description     "fvMatrix::solve_p";
        calls           2000;
        totalTime       100.543;
        childTime       99.8685;
        onStack         0;
    }

    {
        id              7;
        parentId        6;
        description     "lduMatrix::solver_Ux";
        calls           1000;
        totalTime       3.92622;
        childTime       0;
        onStack         0;
    }

    {
        id              8;
        parentId        6;
        description     "lduMatrix::solver_Uy";
        calls           1000;
        totalTime       3.85039;
        childTime       0;
        onStack         0;
    }

    {
        id              10;
        parentId        9;
        description     "lduMatrix::solver_p";
        calls           2000;
        totalTime       99.8685;
        childTime       0;
        onStack         0;
    }
);


// ************************************************************************* //
