/*--------------------------------*- C++ -*----------------------------------*\
| =========                 |                                                 |
| \\      /  F ield         | foam-extend: Open Source CFD                    |
|  \\    /   O peration     | Version:     4.0                                |
|   \\  /    A nd           | Web:         http://www.foam-extend.org         |
|    \\/     M anipulation  |                                                 |
\*---------------------------------------------------------------------------*/
FoamFile
{
    version     2.0;
    format      ascii;
    class       volScalarField;
    location    "55";
    object      p;
}
// * * * * * * * * * * * * * * * * * * * * * * * * * * * * * * * * * * * * * //

dimensions      [0 2 -2 0 0 0 0];

internalField   nonuniform List<scalar> 
36000
(
-7.51436e-06
-7.56019e-06
-7.60857e-06
-7.65308e-06
-7.69435e-06
-7.73316e-06
-7.76962e-06
-7.80369e-06
-7.83535e-06
-7.86467e-06
-7.89174e-06
-7.91666e-06
-7.93952e-06
-7.96042e-06
-7.97941e-06
-7.99645e-06
-8.01145e-06
-8.02418e-06
-8.03429e-06
-8.04124e-06
-8.04426e-06
-8.04233e-06
-8.03415e-06
-8.01805e-06
-7.992e-06
-7.95353e-06
-7.89977e-06
-7.8274e-06
-7.73236e-06
-7.60968e-06
-7.52933e-06
-7.57451e-06
-7.62221e-06
-7.66611e-06
-7.70683e-06
-7.74515e-06
-7.78116e-06
-7.81481e-06
-7.8461e-06
-7.8751e-06
-7.90188e-06
-7.92656e-06
-7.94922e-06
-7.96997e-06
-7.98884e-06
-8.00582e-06
-8.02081e-06
-8.03358e-06
-8.0438e-06
-8.05091e-06
-8.05418e-06
-8.05258e-06
-8.04482e-06
-8.02924e-06
-8.00381e-06
-7.9661e-06
-7.91324e-06
-7.84201e-06
-7.74805e-06
-7.62492e-06
-7.55904e-06
-7.60294e-06
-7.64931e-06
-7.69201e-06
-7.73165e-06
-7.76898e-06
-7.80408e-06
-7.8369e-06
-7.86746e-06
-7.8958e-06
-7.92202e-06
-7.94621e-06
-7.96848e-06
-7.98891e-06
-8.00756e-06
-8.0244e-06
-8.03936e-06
-8.05221e-06
-8.06262e-06
-8.07006e-06
-8.0738e-06
-8.07284e-06
-8.06589e-06
-8.05132e-06
-8.02713e-06
-7.99088e-06
-7.93981e-06
-7.87082e-06
-7.77906e-06
-7.65499e-06
-7.60294e-06
-7.64495e-06
-7.68936e-06
-7.73031e-06
-7.76835e-06
-7.80421e-06
-7.83797e-06
-7.86958e-06
-7.89904e-06
-7.92641e-06
-7.95177e-06
-7.97523e-06
-7.99689e-06
-8.01684e-06
-8.03513e-06
-8.05176e-06
-8.06664e-06
-8.07958e-06
-8.09026e-06
-8.09815e-06
-8.10256e-06
-8.1025e-06
-8.0967e-06
-8.08359e-06
-8.06116e-06
-8.02702e-06
-7.97849e-06
-7.91271e-06
-7.8243e-06
-7.6987e-06
-7.66019e-06
-7.69976e-06
-7.74164e-06
-7.7803e-06
-7.81628e-06
-7.85023e-06
-7.88223e-06
-7.91224e-06
-7.94026e-06
-7.96634e-06
-7.99058e-06
-8.01306e-06
-8.0339e-06
-8.05318e-06
-8.07097e-06
-8.08727e-06
-8.10201e-06
-8.11502e-06
-8.12598e-06
-8.13441e-06
-8.13962e-06
-8.14065e-06
-8.13629e-06
-8.12498e-06
-8.10475e-06
-8.07326e-06
-8.02794e-06
-7.96622e-06
-7.8821e-06
-7.75426e-06
-7.72973e-06
-7.76638e-06
-7.80521e-06
-7.84112e-06
-7.87459e-06
-7.90623e-06
-7.9361e-06
-7.96416e-06
-7.99041e-06
-8.0149e-06
-8.03772e-06
-8.05898e-06
-8.07877e-06
-8.09719e-06
-8.11431e-06
-8.13015e-06
-8.14465e-06
-8.15765e-06
-8.16888e-06
-8.17786e-06
-8.18394e-06
-8.1862e-06
-8.18345e-06
-8.17418e-06
-8.1565e-06
-8.12808e-06
-8.08654e-06
-8.02944e-06
-7.95036e-06
-7.8194e-06
-7.81033e-06
-7.84363e-06
-7.87897e-06
-7.91172e-06
-7.94231e-06
-7.97128e-06
-7.99868e-06
-8.02446e-06
-8.04863e-06
-8.07125e-06
-8.09239e-06
-8.11216e-06
-8.13066e-06
-8.14801e-06
-8.16427e-06
-8.17948e-06
-8.1936e-06
-8.20649e-06
-8.21789e-06
-8.22738e-06
-8.23432e-06
-8.23784e-06
-8.23679e-06
-8.22972e-06
-8.21481e-06
-8.18978e-06
-8.15231e-06
-8.10008e-06
-8.02686e-06
-7.89133e-06
-7.9006e-06
-7.93022e-06
-7.96172e-06
-7.99098e-06
-8.01836e-06
-8.04434e-06
-8.06897e-06
-8.09218e-06
-8.11399e-06
-8.13445e-06
-8.15365e-06
-8.17168e-06
-8.18867e-06
-8.20471e-06
-8.21989e-06
-8.23427e-06
-8.24783e-06
-8.26045e-06
-8.27189e-06
-8.28176e-06
-8.28947e-06
-8.29418e-06
-8.29483e-06
-8.29002e-06
-8.27795e-06
-8.25635e-06
-8.22298e-06
-8.17579e-06
-8.10947e-06
-7.96661e-06
-7.99909e-06
-8.02478e-06
-8.05216e-06
-8.07766e-06
-8.10159e-06
-8.12433e-06
-8.14591e-06
-8.1663e-06
-8.1855e-06
-8.20356e-06
-8.22055e-06
-8.2366e-06
-8.2518e-06
-8.26629e-06
-8.28017e-06
-8.29349e-06
-8.30626e-06
-8.31839e-06
-8.32967e-06
-8.33973e-06
-8.34804e-06
-8.35383e-06
-8.35607e-06
-8.35339e-06
-8.34402e-06
-8.32571e-06
-8.29635e-06
-8.25425e-06
-8.19667e-06
-8.0402e-06
-8.10428e-06
-8.1259e-06
-8.14898e-06
-8.17054e-06
-8.19081e-06
-8.21011e-06
-8.22845e-06
-8.2458e-06
-8.26215e-06
-8.27757e-06
-8.29212e-06
-8.30593e-06
-8.31911e-06
-8.33179e-06
-8.3441e-06
-8.3561e-06
-8.36783e-06
-8.3792e-06
-8.39006e-06
-8.40008e-06
-8.40876e-06
-8.41537e-06
-8.41892e-06
-8.4181e-06
-8.4112e-06
-8.39598e-06
-8.37026e-06
-8.333e-06
-8.28893e-06
-8.1049e-06
-8.21471e-06
-8.23217e-06
-8.25087e-06
-8.26838e-06
-8.28487e-06
-8.30058e-06
-8.31552e-06
-8.32965e-06
-8.34297e-06
-8.35553e-06
-8.36742e-06
-8.37875e-06
-8.38965e-06
-8.40027e-06
-8.41073e-06
-8.42113e-06
-8.43151e-06
-8.44183e-06
-8.45198e-06
-8.46164e-06
-8.47032e-06
-8.47739e-06
-8.4819e-06
-8.48262e-06
-8.47791e-06
-8.46549e-06
-8.44293e-06
-8.40912e-06
-8.38548e-06
-8.16144e-06
-8.32895e-06
-8.34228e-06
-8.35658e-06
-8.37e-06
-8.38266e-06
-8.3947e-06
-8.40612e-06
-8.41689e-06
-8.42702e-06
-8.43654e-06
-8.44555e-06
-8.45417e-06
-8.46255e-06
-8.47085e-06
-8.47919e-06
-8.48769e-06
-8.4964e-06
-8.50534e-06
-8.51438e-06
-8.52324e-06
-8.53154e-06
-8.53868e-06
-8.54378e-06
-8.54566e-06
-8.54272e-06
-8.53278e-06
-8.51361e-06
-8.48266e-06
-8.45804e-06
-8.25461e-06
-8.44571e-06
-8.45499e-06
-8.46497e-06
-8.47435e-06
-8.48316e-06
-8.49149e-06
-8.49933e-06
-8.50664e-06
-8.51345e-06
-8.51978e-06
-8.52573e-06
-8.53144e-06
-8.53708e-06
-8.54279e-06
-8.54872e-06
-8.55498e-06
-8.56166e-06
-8.5688e-06
-8.5763e-06
-8.58397e-06
-8.59148e-06
-8.59828e-06
-8.60355e-06
-8.60614e-06
-8.60451e-06
-8.59653e-06
-8.58034e-06
-8.55376e-06
-8.52505e-06
-8.33285e-06
-8.56385e-06
-8.56924e-06
-8.57503e-06
-8.58046e-06
-8.58548e-06
-8.59012e-06
-8.59434e-06
-8.59813e-06
-8.60151e-06
-8.60453e-06
-8.60729e-06
-8.60994e-06
-8.61261e-06
-8.61546e-06
-8.61863e-06
-8.62229e-06
-8.62656e-06
-8.63149e-06
-8.63707e-06
-8.64315e-06
-8.64946e-06
-8.65547e-06
-8.66043e-06
-8.66324e-06
-8.6624e-06
-8.65585e-06
-8.64197e-06
-8.61868e-06
-8.58979e-06
-8.39889e-06
-8.68237e-06
-8.68408e-06
-8.6859e-06
-8.68754e-06
-8.6889e-06
-8.68992e-06
-8.69057e-06
-8.69081e-06
-8.69071e-06
-8.69033e-06
-8.68978e-06
-8.68915e-06
-8.68857e-06
-8.68823e-06
-8.68833e-06
-8.68906e-06
-8.69056e-06
-8.69293e-06
-8.69622e-06
-8.70031e-06
-8.70497e-06
-8.70973e-06
-8.71388e-06
-8.71639e-06
-8.7158e-06
-8.7101e-06
-8.69781e-06
-8.67682e-06
-8.64939e-06
-8.45488e-06
-8.80045e-06
-8.79873e-06
-8.79683e-06
-8.79486e-06
-8.7927e-06
-8.79024e-06
-8.7874e-06
-8.78417e-06
-8.78057e-06
-8.77668e-06
-8.7726e-06
-8.76844e-06
-8.76439e-06
-8.76065e-06
-8.75745e-06
-8.75498e-06
-8.75341e-06
-8.7529e-06
-8.7535e-06
-8.75518e-06
-8.75774e-06
-8.76078e-06
-8.76364e-06
-8.76533e-06
-8.76445e-06
-8.75901e-06
-8.74763e-06
-8.72813e-06
-8.70243e-06
-8.50139e-06
-8.91751e-06
-8.91266e-06
-8.9073e-06
-8.90195e-06
-8.89643e-06
-8.89056e-06
-8.88428e-06
-8.87758e-06
-8.87047e-06
-8.86303e-06
-8.85536e-06
-8.84761e-06
-8.83996e-06
-8.83266e-06
-8.82593e-06
-8.81998e-06
-8.81503e-06
-8.81128e-06
-8.80884e-06
-8.8077e-06
-8.80774e-06
-8.80861e-06
-8.8097e-06
-8.81008e-06
-8.80838e-06
-8.80264e-06
-8.79155e-06
-8.77281e-06
-8.74864e-06
-8.53873e-06
-9.03323e-06
-9.02556e-06
-9.01705e-06
-9.00856e-06
-8.99986e-06
-8.99074e-06
-8.98112e-06
-8.971e-06
-8.9604e-06
-8.94939e-06
-8.93808e-06
-8.92663e-06
-8.91527e-06
-8.90422e-06
-8.89374e-06
-8.88405e-06
-8.87545e-06
-8.86816e-06
-8.86233e-06
-8.85803e-06
-8.85516e-06
-8.85344e-06
-8.85233e-06
-8.85093e-06
-8.84791e-06
-8.84133e-06
-8.82995e-06
-8.8113e-06
-8.78831e-06
-8.56737e-06
-9.14749e-06
-9.1373e-06
-9.12593e-06
-9.11455e-06
-9.10289e-06
-9.09068e-06
-9.07785e-06
-9.06438e-06
-9.05032e-06
-9.03574e-06
-9.02076e-06
-9.00555e-06
-8.99036e-06
-8.97542e-06
-8.96098e-06
-8.94737e-06
-8.93487e-06
-8.92377e-06
-8.91428e-06
-8.90649e-06
-8.90038e-06
-8.89571e-06
-8.892e-06
-8.8884e-06
-8.8836e-06
-8.87568e-06
-8.86344e-06
-8.84423e-06
-8.82205e-06
-8.58796e-06
-9.26039e-06
-9.24796e-06
-9.23403e-06
-9.22e-06
-9.20557e-06
-9.19043e-06
-9.17451e-06
-9.15779e-06
-9.14033e-06
-9.12219e-06
-9.10352e-06
-9.08451e-06
-9.06541e-06
-9.04644e-06
-9.02793e-06
-9.01022e-06
-8.99365e-06
-8.97853e-06
-8.96512e-06
-8.95358e-06
-8.94394e-06
-8.93601e-06
-8.92936e-06
-8.92318e-06
-8.9162e-06
-8.90646e-06
-8.89282e-06
-8.8724e-06
-8.85063e-06
-8.60127e-06
-9.37218e-06
-9.35779e-06
-9.34156e-06
-9.32511e-06
-9.30809e-06
-9.29018e-06
-9.27129e-06
-9.25142e-06
-9.23061e-06
-9.20896e-06
-9.18662e-06
-9.16379e-06
-9.1407e-06
-9.11764e-06
-9.09496e-06
-9.07303e-06
-9.05224e-06
-9.03294e-06
-9.01543e-06
-8.99994e-06
-8.98653e-06
-8.97508e-06
-8.9652e-06
-8.95612e-06
-8.94655e-06
-8.93453e-06
-8.91896e-06
-8.89671e-06
-8.87489e-06
-8.60818e-06
-9.48331e-06
-9.46719e-06
-9.44889e-06
-9.43021e-06
-9.41079e-06
-9.39025e-06
-9.36851e-06
-9.34557e-06
-9.32149e-06
-9.29637e-06
-9.27038e-06
-9.24371e-06
-9.21662e-06
-9.18943e-06
-9.16252e-06
-9.13631e-06
-9.1112e-06
-9.0876e-06
-9.06587e-06
-9.04627e-06
-9.02892e-06
-9.01375e-06
-9.0004e-06
-8.9881e-06
-8.97558e-06
-8.96083e-06
-8.94278e-06
-8.91802e-06
-8.89564e-06
-8.60969e-06
-9.59435e-06
-9.57669e-06
-9.55652e-06
-9.53578e-06
-9.51408e-06
-9.49103e-06
-9.46655e-06
-9.44063e-06
-9.41335e-06
-9.38482e-06
-9.3552e-06
-9.32471e-06
-9.29362e-06
-9.2623e-06
-9.23115e-06
-9.20061e-06
-9.17114e-06
-9.14319e-06
-9.11715e-06
-9.09335e-06
-9.07194e-06
-9.05289e-06
-9.03584e-06
-9.02003e-06
-9.00418e-06
-8.98623e-06
-8.96512e-06
-8.93713e-06
-8.91356e-06
-8.60685e-06
-9.70597e-06
-9.68691e-06
-9.66501e-06
-9.64233e-06
-9.61847e-06
-9.59302e-06
-9.56587e-06
-9.53705e-06
-9.50664e-06
-9.47475e-06
-9.44155e-06
-9.40726e-06
-9.37221e-06
-9.33678e-06
-9.30141e-06
-9.26655e-06
-9.23272e-06
-9.2004e-06
-9.17003e-06
-9.14197e-06
-9.11642e-06
-9.09333e-06
-9.07237e-06
-9.05277e-06
-9.03323e-06
-9.01158e-06
-8.98675e-06
-8.95464e-06
-8.92903e-06
-8.60078e-06
-9.81892e-06
-9.79855e-06
-9.77501e-06
-9.75048e-06
-9.72453e-06
-9.69673e-06
-9.66699e-06
-9.63534e-06
-9.60185e-06
-9.56665e-06
-9.52991e-06
-9.49189e-06
-9.45293e-06
-9.41344e-06
-9.37388e-06
-9.33475e-06
-9.29659e-06
-9.25992e-06
-9.22523e-06
-9.1929e-06
-9.16311e-06
-9.13586e-06
-9.11079e-06
-9.08712e-06
-9.06348e-06
-9.0376e-06
-9.00831e-06
-8.97108e-06
-8.94209e-06
-8.59284e-06
-9.93399e-06
-9.91233e-06
-9.88718e-06
-9.86084e-06
-9.83284e-06
-9.80274e-06
-9.77045e-06
-9.73601e-06
-9.69949e-06
-9.66103e-06
-9.6208e-06
-9.57911e-06
-9.53631e-06
-9.49283e-06
-9.44915e-06
-9.40581e-06
-9.36339e-06
-9.32244e-06
-9.28345e-06
-9.24681e-06
-9.21273e-06
-9.18119e-06
-9.15182e-06
-9.12378e-06
-9.09559e-06
-9.06487e-06
-9.03028e-06
-8.98694e-06
-8.95248e-06
-8.58519e-06
-1.00519e-05
-1.0029e-05
-1.00022e-05
-9.97405e-06
-9.944e-06
-9.9116e-06
-9.87679e-06
-9.83958e-06
-9.80006e-06
-9.75837e-06
-9.71473e-06
-9.66944e-06
-9.62287e-06
-9.57547e-06
-9.52777e-06
-9.48032e-06
-9.43373e-06
-9.38854e-06
-9.34527e-06
-9.30431e-06
-9.26589e-06
-9.22994e-06
-9.19605e-06
-9.1633e-06
-9.13008e-06
-9.09383e-06
-9.05293e-06
-9.00253e-06
-8.95866e-06
-8.57972e-06
-1.01735e-05
-1.01492e-05
-1.01207e-05
-1.00907e-05
-1.00586e-05
-1.00239e-05
-9.98652e-06
-9.94655e-06
-9.90405e-06
-9.85918e-06
-9.81218e-06
-9.76335e-06
-9.71309e-06
-9.66188e-06
-9.61025e-06
-9.55879e-06
-9.50809e-06
-9.45872e-06
-9.4112e-06
-9.36592e-06
-9.32308e-06
-9.28258e-06
-9.24393e-06
-9.2061e-06
-9.16732e-06
-9.12483e-06
-9.07638e-06
-9.01707e-06
-8.95279e-06
-8.56802e-06
-1.02994e-05
-1.02736e-05
-1.02434e-05
-1.02114e-05
-1.01771e-05
-1.014e-05
-1.01001e-05
-1.00574e-05
-1.00119e-05
-9.9639e-06
-9.91358e-06
-9.86128e-06
-9.80742e-06
-9.75249e-06
-9.69704e-06
-9.64164e-06
-9.5869e-06
-9.53341e-06
-9.48166e-06
-9.43204e-06
-9.38469e-06
-9.33946e-06
-9.29578e-06
-9.2525e-06
-9.2077e-06
-9.15844e-06
-9.10138e-06
-9.02994e-06
-8.92391e-06
-8.54105e-06
-1.04302e-05
-1.04028e-05
-1.03706e-05
-1.03365e-05
-1.03e-05
-1.02606e-05
-1.0218e-05
-1.01725e-05
-1.0124e-05
-1.00729e-05
-1.00193e-05
-9.96361e-06
-9.90623e-06
-9.84766e-06
-9.78845e-06
-9.7292e-06
-9.6705e-06
-9.61292e-06
-9.55695e-06
-9.50292e-06
-9.45093e-06
-9.40076e-06
-9.35174e-06
-9.30267e-06
-9.25156e-06
-9.19564e-06
-9.13037e-06
-9.04811e-06
-8.89758e-06
-8.62084e-06
-1.05664e-05
-1.05372e-05
-1.05029e-05
-1.04666e-05
-1.04278e-05
-1.03858e-05
-1.03406e-05
-1.02922e-05
-1.02408e-05
-1.01865e-05
-1.01297e-05
-1.00707e-05
-1.00098e-05
-9.94766e-06
-9.88477e-06
-9.82172e-06
-9.75911e-06
-9.69746e-06
-9.63723e-06
-9.5787e-06
-9.52188e-06
-9.46647e-06
-9.41176e-06
-9.35651e-06
-9.29882e-06
-9.23676e-06
-9.1658e-06
-9.08542e-06
-8.95762e-06
-9.15433e-06
-1.07084e-05
-1.06772e-05
-1.06406e-05
-1.0602e-05
-1.05606e-05
-1.0516e-05
-1.04681e-05
-1.04168e-05
-1.03624e-05
-1.0305e-05
-1.0245e-05
-1.01826e-05
-1.01184e-05
-1.00527e-05
-9.98617e-06
-9.91938e-06
-9.85286e-06
-9.78712e-06
-9.72254e-06
-9.65933e-06
-9.59742e-06
-9.53641e-06
-9.47547e-06
-9.4133e-06
-9.34815e-06
-9.27831e-06
-9.19965e-06
-9.11675e-06
-9.00031e-06
-9.24892e-06
-1.08564e-05
-1.0823e-05
-1.0784e-05
-1.07428e-05
-1.06988e-05
-1.06515e-05
-1.06007e-05
-1.05465e-05
-1.0489e-05
-1.04286e-05
-1.03653e-05
-1.02996e-05
-1.0232e-05
-1.01628e-05
-1.00927e-05
-1.00222e-05
-9.95176e-06
-9.88186e-06
-9.81279e-06
-9.74468e-06
-9.67734e-06
-9.61024e-06
-9.54241e-06
-9.47244e-06
-9.39862e-06
-9.31905e-06
-9.2297e-06
-9.13604e-06
-9.00363e-06
-9.18848e-06
-1.10106e-05
-1.09748e-05
-1.09331e-05
-1.08892e-05
-1.08424e-05
-1.07923e-05
-1.07385e-05
-1.06813e-05
-1.06208e-05
-1.05572e-05
-1.04907e-05
-1.04218e-05
-1.03508e-05
-1.02782e-05
-1.02045e-05
-1.01302e-05
-1.00557e-05
-9.98153e-06
-9.90778e-06
-9.83446e-06
-9.76126e-06
-9.68751e-06
-9.61202e-06
-9.53336e-06
-9.4495e-06
-9.35843e-06
-9.25597e-06
-9.14644e-06
-8.99243e-06
-9.11972e-06
-1.1171e-05
-1.11326e-05
-1.10879e-05
-1.10411e-05
-1.09915e-05
-1.09384e-05
-1.08816e-05
-1.08213e-05
-1.07577e-05
-1.06909e-05
-1.06212e-05
-1.0549e-05
-1.04746e-05
-1.03985e-05
-1.03212e-05
-1.02431e-05
-1.01646e-05
-1.00859e-05
-1.00072e-05
-9.92827e-06
-9.84871e-06
-9.76763e-06
-9.68375e-06
-9.59534e-06
-9.50021e-06
-9.39608e-06
-9.27862e-06
-9.15083e-06
-8.97542e-06
-9.05125e-06
-1.13373e-05
-1.12961e-05
-1.12484e-05
-1.11985e-05
-1.11459e-05
-1.10897e-05
-1.10298e-05
-1.09664e-05
-1.08996e-05
-1.08296e-05
-1.07567e-05
-1.06812e-05
-1.06034e-05
-1.05238e-05
-1.04428e-05
-1.03608e-05
-1.0278e-05
-1.01946e-05
-1.01106e-05
-1.00256e-05
-9.93912e-06
-9.85e-06
-9.75686e-06
-9.65767e-06
-9.55005e-06
-9.43166e-06
-9.29778e-06
-9.15065e-06
-8.95463e-06
-8.98216e-06
-1.15094e-05
-1.14652e-05
-1.14142e-05
-1.13612e-05
-1.13054e-05
-1.12461e-05
-1.1183e-05
-1.11164e-05
-1.10464e-05
-1.09732e-05
-1.0897e-05
-1.08181e-05
-1.07369e-05
-1.06538e-05
-1.0569e-05
-1.04828e-05
-1.03955e-05
-1.03071e-05
-1.02174e-05
-1.01259e-05
-1.00318e-05
-9.93395e-06
-9.83059e-06
-9.71962e-06
-9.59847e-06
-9.46466e-06
-9.31349e-06
-9.14658e-06
-8.93086e-06
-8.91313e-06
-1.16869e-05
-1.16396e-05
-1.15851e-05
-1.15288e-05
-1.14698e-05
-1.14072e-05
-1.13409e-05
-1.1271e-05
-1.11978e-05
-1.11213e-05
-1.10418e-05
-1.09595e-05
-1.08748e-05
-1.0788e-05
-1.06993e-05
-1.06089e-05
-1.05168e-05
-1.0423e-05
-1.03271e-05
-1.02285e-05
-1.01261e-05
-1.00186e-05
-9.90415e-06
-9.78039e-06
-9.64481e-06
-9.49467e-06
-9.32561e-06
-9.13884e-06
-8.90444e-06
-8.8448e-06
-1.18692e-05
-1.18186e-05
-1.17606e-05
-1.17009e-05
-1.16385e-05
-1.15726e-05
-1.1503e-05
-1.14299e-05
-1.13534e-05
-1.12736e-05
-1.11907e-05
-1.1105e-05
-1.10168e-05
-1.09261e-05
-1.08333e-05
-1.07383e-05
-1.06412e-05
-1.05416e-05
-1.0439e-05
-1.03326e-05
-1.02212e-05
-1.01032e-05
-9.97668e-06
-9.83925e-06
-9.68827e-06
-9.52114e-06
-9.33384e-06
-9.12739e-06
-8.87532e-06
-8.77699e-06
-1.20559e-05
-1.20019e-05
-1.19402e-05
-1.1877e-05
-1.18112e-05
-1.1742e-05
-1.1669e-05
-1.15926e-05
-1.15128e-05
-1.14296e-05
-1.13434e-05
-1.12542e-05
-1.11622e-05
-1.10676e-05
-1.09705e-05
-1.08707e-05
-1.0768e-05
-1.06621e-05
-1.05522e-05
-1.04373e-05
-1.03161e-05
-1.01868e-05
-1.00473e-05
-9.89534e-06
-9.7282e-06
-9.54355e-06
-9.33781e-06
-9.112e-06
-8.84313e-06
-8.70908e-06
-1.22461e-05
-1.21886e-05
-1.21233e-05
-1.20565e-05
-1.19873e-05
-1.19146e-05
-1.18384e-05
-1.17586e-05
-1.16754e-05
-1.15889e-05
-1.14992e-05
-1.14064e-05
-1.13106e-05
-1.12119e-05
-1.11101e-05
-1.10051e-05
-1.08966e-05
-1.07838e-05
-1.0666e-05
-1.05419e-05
-1.041e-05
-1.02685e-05
-1.01152e-05
-9.9478e-06
-9.76387e-06
-9.5613e-06
-9.33707e-06
-9.0923e-06
-8.80741e-06
-8.64018e-06
-1.24391e-05
-1.23782e-05
-1.2309e-05
-1.22386e-05
-1.2166e-05
-1.20899e-05
-1.20103e-05
-1.19272e-05
-1.18407e-05
-1.17508e-05
-1.16576e-05
-1.15611e-05
-1.14613e-05
-1.13582e-05
-1.12515e-05
-1.1141e-05
-1.1026e-05
-1.09058e-05
-1.07793e-05
-1.06452e-05
-1.05019e-05
-1.03472e-05
-1.01793e-05
-9.99579e-06
-9.79455e-06
-9.57381e-06
-9.33117e-06
-9.06795e-06
-8.76781e-06
-8.56963e-06
-1.2634e-05
-1.25696e-05
-1.24966e-05
-1.24227e-05
-1.23466e-05
-1.22672e-05
-1.21842e-05
-1.20978e-05
-1.20079e-05
-1.19146e-05
-1.18178e-05
-1.17175e-05
-1.16135e-05
-1.15058e-05
-1.13939e-05
-1.12773e-05
-1.11554e-05
-1.10271e-05
-1.08913e-05
-1.07464e-05
-1.05906e-05
-1.04221e-05
-1.02387e-05
-1.00385e-05
-9.8195e-06
-9.58045e-06
-9.3196e-06
-9.03856e-06
-8.72406e-06
-8.49757e-06
-1.28299e-05
-1.27619e-05
-1.26852e-05
-1.26078e-05
-1.25283e-05
-1.24455e-05
-1.23593e-05
-1.22695e-05
-1.21763e-05
-1.20795e-05
-1.1979e-05
-1.18748e-05
-1.17665e-05
-1.16538e-05
-1.15363e-05
-1.14132e-05
-1.12837e-05
-1.11467e-05
-1.10008e-05
-1.08442e-05
-1.06753e-05
-1.0492e-05
-1.02925e-05
-1.0075e-05
-9.83799e-06
-9.58061e-06
-9.30184e-06
-9.00363e-06
-8.67549e-06
-8.42363e-06
-1.30257e-05
-1.29543e-05
-1.28739e-05
-1.27929e-05
-1.27101e-05
-1.2624e-05
-1.25346e-05
-1.24415e-05
-1.23449e-05
-1.22446e-05
-1.21404e-05
-1.2032e-05
-1.19191e-05
-1.18012e-05
-1.16777e-05
-1.15476e-05
-1.141e-05
-1.12635e-05
-1.11067e-05
-1.09376e-05
-1.07547e-05
-1.0556e-05
-1.03397e-05
-1.01045e-05
-9.84929e-06
-9.57368e-06
-9.27736e-06
-8.96263e-06
-8.62149e-06
-8.34674e-06
-1.32204e-05
-1.31455e-05
-1.30614e-05
-1.2977e-05
-1.28909e-05
-1.28017e-05
-1.27091e-05
-1.26128e-05
-1.25129e-05
-1.2409e-05
-1.2301e-05
-1.21883e-05
-1.20706e-05
-1.19471e-05
-1.1817e-05
-1.16794e-05
-1.1533e-05
-1.13764e-05
-1.12078e-05
-1.10255e-05
-1.08278e-05
-1.06129e-05
-1.03794e-05
-1.01262e-05
-9.8527e-06
-9.55907e-06
-9.24565e-06
-8.9151e-06
-8.5616e-06
-8.26628e-06
-1.34125e-05
-1.33343e-05
-1.32467e-05
-1.3159e-05
-1.30698e-05
-1.29775e-05
-1.28817e-05
-1.27823e-05
-1.26791e-05
-1.25716e-05
-1.24596e-05
-1.23425e-05
-1.22196e-05
-1.20902e-05
-1.19532e-05
-1.18075e-05
-1.16516e-05
-1.1484e-05
-1.13029e-05
-1.11066e-05
-1.08935e-05
-1.06619e-05
-1.04107e-05
-1.01393e-05
-9.84755e-06
-9.53622e-06
-9.20623e-06
-8.8606e-06
-8.49539e-06
-8.18171e-06
-1.3601e-05
-1.35195e-05
-1.34285e-05
-1.33376e-05
-1.32454e-05
-1.31502e-05
-1.30514e-05
-1.29489e-05
-1.28423e-05
-1.27313e-05
-1.26152e-05
-1.24934e-05
-1.23651e-05
-1.22293e-05
-1.20849e-05
-1.19304e-05
-1.17644e-05
-1.15851e-05
-1.13909e-05
-1.11798e-05
-1.09505e-05
-1.07017e-05
-1.04326e-05
-1.0143e-05
-9.8332e-06
-9.50458e-06
-9.15865e-06
-8.7987e-06
-8.42237e-06
-8.0921e-06
-1.37844e-05
-1.36998e-05
-1.36055e-05
-1.35117e-05
-1.34166e-05
-1.33186e-05
-1.32169e-05
-1.31113e-05
-1.30015e-05
-1.28867e-05
-1.27664e-05
-1.26398e-05
-1.25057e-05
-1.23632e-05
-1.22108e-05
-1.2047e-05
-1.18701e-05
-1.16785e-05
-1.14703e-05
-1.12439e-05
-1.0998e-05
-1.07316e-05
-1.04444e-05
-1.01365e-05
-9.80905e-06
-9.46369e-06
-9.10252e-06
-8.72909e-06
-8.34238e-06
-7.99733e-06
-1.39613e-05
-1.38738e-05
-1.37764e-05
-1.36798e-05
-1.3582e-05
-1.34813e-05
-1.33768e-05
-1.32683e-05
-1.31552e-05
-1.30367e-05
-1.2912e-05
-1.27803e-05
-1.26402e-05
-1.24904e-05
-1.23295e-05
-1.21558e-05
-1.19675e-05
-1.17628e-05
-1.154e-05
-1.12977e-05
-1.10347e-05
-1.07505e-05
-1.04451e-05
-1.01193e-05
-9.77454e-06
-9.41307e-06
-9.03745e-06
-8.6515e-06
-8.2555e-06
-7.89822e-06
-1.41301e-05
-1.40399e-05
-1.39397e-05
-1.38404e-05
-1.37402e-05
-1.36369e-05
-1.35299e-05
-1.34185e-05
-1.3302e-05
-1.31798e-05
-1.30506e-05
-1.29135e-05
-1.2767e-05
-1.26096e-05
-1.24397e-05
-1.22554e-05
-1.2055e-05
-1.18366e-05
-1.15987e-05
-1.134e-05
-1.10597e-05
-1.07575e-05
-1.04341e-05
-1.00906e-05
-9.72913e-06
-9.3523e-06
-8.96311e-06
-8.56571e-06
-8.16129e-06
-7.79207e-06
-1.42894e-05
-1.41967e-05
-1.40939e-05
-1.39922e-05
-1.38897e-05
-1.37841e-05
-1.36745e-05
-1.35603e-05
-1.34407e-05
-1.33145e-05
-1.31807e-05
-1.3038e-05
-1.28847e-05
-1.27193e-05
-1.25398e-05
-1.23444e-05
-1.21313e-05
-1.18987e-05
-1.16452e-05
-1.13697e-05
-1.10718e-05
-1.07518e-05
-1.04106e-05
-1.00499e-05
-9.67233e-06
-9.28097e-06
-8.87919e-06
-8.47156e-06
-8.05917e-06
-7.67687e-06
-1.44376e-05
-1.43425e-05
-1.42374e-05
-1.41335e-05
-1.4029e-05
-1.39213e-05
-1.38093e-05
-1.36924e-05
-1.35695e-05
-1.34394e-05
-1.33009e-05
-1.31522e-05
-1.29918e-05
-1.28178e-05
-1.26283e-05
-1.24213e-05
-1.2195e-05
-1.19477e-05
-1.16782e-05
-1.13857e-05
-1.10703e-05
-1.07325e-05
-1.03738e-05
-9.99656e-06
-9.60368e-06
-9.19869e-06
-8.78539e-06
-8.36859e-06
-7.94718e-06
-7.55453e-06
-1.45729e-05
-1.44758e-05
-1.43686e-05
-1.42629e-05
-1.41565e-05
-1.40468e-05
-1.39327e-05
-1.38131e-05
-1.3687e-05
-1.3553e-05
-1.34094e-05
-1.32547e-05
-1.30868e-05
-1.29039e-05
-1.27038e-05
-1.24847e-05
-1.22447e-05
-1.19823e-05
-1.16966e-05
-1.1387e-05
-1.1054e-05
-1.06988e-05
-1.03232e-05
-9.93007e-06
-9.52275e-06
-9.10513e-06
-8.68149e-06
-8.25622e-06
-7.82581e-06
-7.4259e-06
-1.46937e-05
-1.45949e-05
-1.44859e-05
-1.43786e-05
-1.42707e-05
-1.41593e-05
-1.40431e-05
-1.3921e-05
-1.37916e-05
-1.36535e-05
-1.35048e-05
-1.33437e-05
-1.3168e-05
-1.29758e-05
-1.27649e-05
-1.25332e-05
-1.22791e-05
-1.20014e-05
-1.16992e-05
-1.13726e-05
-1.10223e-05
-1.065e-05
-1.02582e-05
-9.84997e-06
-9.42917e-06
-9.00003e-06
-8.56719e-06
-8.13321e-06
-7.69629e-06
-7.29006e-06
-1.47984e-05
-1.46981e-05
-1.45877e-05
-1.44791e-05
-1.43698e-05
-1.42569e-05
-1.41388e-05
-1.40143e-05
-1.38817e-05
-1.37395e-05
-1.35855e-05
-1.34177e-05
-1.3234e-05
-1.30321e-05
-1.28098e-05
-1.25653e-05
-1.22969e-05
-1.20037e-05
-1.16851e-05
-1.13416e-05
-1.09744e-05
-1.05856e-05
-1.01782e-05
-9.75582e-06
-9.32258e-06
-8.88315e-06
-8.44197e-06
-7.99887e-06
-7.5586e-06
-7.14656e-06
-1.48852e-05
-1.47838e-05
-1.46723e-05
-1.45627e-05
-1.44524e-05
-1.43381e-05
-1.42183e-05
-1.40914e-05
-1.39557e-05
-1.38092e-05
-1.36498e-05
-1.34752e-05
-1.32831e-05
-1.30712e-05
-1.28374e-05
-1.25797e-05
-1.22969e-05
-1.1988e-05
-1.16531e-05
-1.1293e-05
-1.09094e-05
-1.05048e-05
-1.00828e-05
-9.64724e-06
-9.2027e-06
-8.75413e-06
-8.30468e-06
-7.85444e-06
-7.41235e-06
-6.99473e-06
-1.49525e-05
-1.48503e-05
-1.4738e-05
-1.46277e-05
-1.45166e-05
-1.44013e-05
-1.428e-05
-1.41508e-05
-1.40119e-05
-1.38611e-05
-1.36961e-05
-1.35145e-05
-1.33138e-05
-1.30917e-05
-1.28461e-05
-1.25751e-05
-1.22777e-05
-1.19534e-05
-1.16024e-05
-1.12261e-05
-1.08267e-05
-1.04072e-05
-9.97148e-06
-9.52389e-06
-9.0693e-06
-8.6126e-06
-8.15476e-06
-7.70044e-06
-7.25687e-06
-6.83425e-06
-1.49986e-05
-1.48959e-05
-1.47832e-05
-1.46726e-05
-1.4561e-05
-1.44449e-05
-1.43221e-05
-1.41908e-05
-1.40487e-05
-1.38936e-05
-1.3723e-05
-1.35342e-05
-1.33247e-05
-1.30922e-05
-1.28346e-05
-1.25503e-05
-1.22384e-05
-1.18988e-05
-1.15322e-05
-1.11403e-05
-1.07258e-05
-1.02923e-05
-9.84396e-06
-9.3855e-06
-8.9221e-06
-8.45777e-06
-7.99299e-06
-7.53643e-06
-7.09185e-06
-6.66491e-06
-1.50219e-05
-1.49191e-05
-1.48064e-05
-1.46958e-05
-1.4584e-05
-1.44672e-05
-1.43432e-05
-1.42098e-05
-1.40647e-05
-1.39052e-05
-1.37288e-05
-1.35327e-05
-1.33143e-05
-1.30713e-05
-1.28017e-05
-1.25041e-05
-1.21779e-05
-1.18234e-05
-1.14416e-05
-1.10348e-05
-1.06062e-05
-1.01597e-05
-9.6999e-06
-9.23187e-06
-8.76079e-06
-8.28898e-06
-7.82005e-06
-7.362e-06
-6.91701e-06
-6.48649e-06
-7.45103e-06
-7.24034e-06
-6.99228e-06
-6.69767e-06
-6.35633e-06
-5.96722e-06
-5.53173e-06
-5.05287e-06
-4.53589e-06
-3.98811e-06
-3.41916e-06
-2.83968e-06
-2.2621e-06
-1.6995e-06
-1.16495e-06
-6.69838e-07
-2.23947e-07
1.64471e-07
4.90065e-07
7.50486e-07
9.46325e-07
1.08092e-06
1.15996e-06
1.19092e-06
1.18239e-06
1.14334e-06
1.08243e-06
1.00748e-06
9.25037e-07
8.40227e-07
7.56765e-07
6.77117e-07
6.02752e-07
5.34395e-07
4.72253e-07
4.16208e-07
3.65936e-07
3.21013e-07
2.80974e-07
2.4536e-07
2.13731e-07
1.8569e-07
1.60862e-07
1.38927e-07
1.19566e-07
1.0254e-07
8.75341e-08
7.4417e-08
6.28889e-08
5.29078e-08
4.4099e-08
3.66152e-08
2.98747e-08
2.43732e-08
1.91052e-08
1.51657e-08
1.07844e-08
8.2252e-09
3.78449e-09
4.26907e-09
-7.47147e-06
-7.25862e-06
-7.0111e-06
-6.71693e-06
-6.37604e-06
-5.98724e-06
-5.55191e-06
-5.07304e-06
-4.55586e-06
-4.0077e-06
-3.43819e-06
-2.85788e-06
-2.27943e-06
-1.71581e-06
-1.18012e-06
-6.83774e-07
-2.36596e-07
1.53135e-07
4.80044e-07
7.41761e-07
9.38849e-07
1.07461e-06
1.15472e-06
1.18665e-06
1.17897e-06
1.14063e-06
1.08034e-06
1.00586e-06
9.23815e-07
8.39299e-07
7.56082e-07
6.76605e-07
6.02375e-07
5.34113e-07
4.72046e-07
4.1605e-07
3.65817e-07
3.20926e-07
2.80911e-07
2.45307e-07
2.13692e-07
1.85666e-07
1.60834e-07
1.38916e-07
1.19552e-07
1.02537e-07
8.75097e-08
7.44215e-08
6.28693e-08
5.29188e-08
4.40769e-08
3.66228e-08
2.98725e-08
2.43768e-08
1.90979e-08
1.51567e-08
1.08002e-08
8.21466e-09
3.76205e-09
4.28111e-09
-7.51087e-06
-7.29461e-06
-7.04843e-06
-6.755e-06
-6.41495e-06
-6.02673e-06
-5.59172e-06
-5.11285e-06
-4.59531e-06
-4.04644e-06
-3.47584e-06
-2.89397e-06
-2.31382e-06
-1.7482e-06
-1.21026e-06
-7.1149e-07
-2.61771e-07
1.30557e-07
4.60079e-07
7.24363e-07
9.23922e-07
1.06201e-06
1.14427e-06
1.17812e-06
1.17213e-06
1.13523e-06
1.07613e-06
1.00263e-06
9.21366e-07
8.37458e-07
7.54706e-07
6.75583e-07
6.01618e-07
5.33552e-07
4.71628e-07
4.15739e-07
3.65583e-07
3.20749e-07
2.80776e-07
2.45204e-07
2.13612e-07
1.85602e-07
1.60785e-07
1.38876e-07
1.1952e-07
1.02509e-07
8.74895e-08
7.44031e-08
6.28553e-08
5.29052e-08
4.40674e-08
3.66125e-08
2.98641e-08
2.43698e-08
1.90935e-08
1.51525e-08
1.07965e-08
8.21245e-09
3.76385e-09
4.27576e-09
-7.56786e-06
-7.34685e-06
-7.10308e-06
-6.81076e-06
-6.47195e-06
-6.0846e-06
-5.6501e-06
-5.17129e-06
-4.6533e-06
-4.10346e-06
-3.53119e-06
-2.94732e-06
-2.36462e-06
-1.79609e-06
-1.25489e-06
-7.52576e-07
-2.99134e-07
9.70121e-08
4.30384e-07
6.98462e-07
9.01679e-07
1.04322e-06
1.12866e-06
1.16538e-06
1.16189e-06
1.12715e-06
1.06984e-06
9.97802e-07
9.17696e-07
8.34699e-07
7.52644e-07
6.74052e-07
6.00482e-07
5.3271e-07
4.71003e-07
4.15273e-07
3.65232e-07
3.20483e-07
2.80573e-07
2.45049e-07
2.13492e-07
1.85508e-07
1.60712e-07
1.38817e-07
1.19471e-07
1.02468e-07
8.74584e-08
7.43759e-08
6.28336e-08
5.28852e-08
4.40522e-08
3.65978e-08
2.98519e-08
2.43593e-08
1.90864e-08
1.51458e-08
1.07916e-08
8.20836e-09
3.76543e-09
4.26828e-09
-7.64084e-06
-7.41335e-06
-7.1732e-06
-6.88252e-06
-6.54544e-06
-6.15934e-06
-5.72563e-06
-5.247e-06
-4.72856e-06
-4.17757e-06
-3.60327e-06
-3.01687e-06
-2.43098e-06
-1.85874e-06
-1.31336e-06
-8.06479e-07
-3.48223e-07
5.28784e-08
3.91265e-07
6.64296e-07
8.72303e-07
1.01838e-06
1.108e-06
1.14849e-06
1.14832e-06
1.11641e-06
1.06148e-06
9.91375e-07
9.12813e-07
8.31026e-07
7.49899e-07
6.72012e-07
5.98969e-07
5.31588e-07
4.70169e-07
4.14651e-07
3.64765e-07
3.2013e-07
2.80303e-07
2.44843e-07
2.13332e-07
1.85383e-07
1.60614e-07
1.38737e-07
1.19408e-07
1.02415e-07
8.74165e-08
7.43398e-08
6.28043e-08
5.28589e-08
4.40314e-08
3.65784e-08
2.9836e-08
2.43455e-08
1.90768e-08
1.51367e-08
1.07855e-08
8.20242e-09
3.76684e-09
4.25869e-09
-7.72763e-06
-7.49166e-06
-7.25655e-06
-6.96809e-06
-6.63338e-06
-6.24902e-06
-5.81648e-06
-5.3383e-06
-4.81953e-06
-4.26729e-06
-3.69082e-06
-3.10146e-06
-2.51186e-06
-1.93523e-06
-1.38487e-06
-8.72521e-07
-4.08471e-07
-1.37306e-09
3.43102e-07
6.22168e-07
8.36026e-07
9.87647e-07
1.08241e-06
1.12754e-06
1.13146e-06
1.10307e-06
1.05107e-06
9.83371e-07
9.06728e-07
8.26445e-07
7.46475e-07
6.69465e-07
5.9708e-07
5.30187e-07
4.69127e-07
4.13873e-07
3.6418e-07
3.19688e-07
2.79966e-07
2.44585e-07
2.13132e-07
1.85227e-07
1.60492e-07
1.38639e-07
1.19328e-07
1.02348e-07
8.73637e-08
7.42948e-08
6.27674e-08
5.28263e-08
4.40052e-08
3.65545e-08
2.98162e-08
2.43283e-08
1.90646e-08
1.51252e-08
1.07782e-08
8.19468e-09
3.76812e-09
4.247e-09
-7.82573e-06
-7.5789e-06
-7.35057e-06
-7.065e-06
-6.73336e-06
-6.35138e-06
-5.92054e-06
-5.44322e-06
-4.92436e-06
-4.37088e-06
-3.7923e-06
-3.19975e-06
-2.60605e-06
-2.02451e-06
-1.46849e-06
-9.49912e-07
-4.79214e-07
-6.5192e-08
2.86342e-07
5.72433e-07
7.93124e-07
9.51243e-07
1.05204e-06
1.10265e-06
1.1114e-06
1.08716e-06
1.03865e-06
9.73809e-07
8.99452e-07
8.20963e-07
7.42374e-07
6.66415e-07
5.94816e-07
5.28507e-07
4.67877e-07
4.1294e-07
3.63479e-07
3.19158e-07
2.79562e-07
2.44275e-07
2.12892e-07
1.8504e-07
1.60345e-07
1.38521e-07
1.19233e-07
1.02269e-07
8.73002e-08
7.42409e-08
6.2723e-08
5.27874e-08
4.39734e-08
3.65259e-08
2.97927e-08
2.43077e-08
1.90498e-08
1.51113e-08
1.07697e-08
8.18515e-09
3.76927e-09
4.23319e-09
-7.93328e-06
-7.67158e-06
-7.45263e-06
-7.17056e-06
-6.84276e-06
-6.46393e-06
-6.03544e-06
-5.55953e-06
-5.04087e-06
-4.48662e-06
-3.90597e-06
-3.3102e-06
-2.71219e-06
-2.12538e-06
-1.56321e-06
-1.03777e-06
-5.59715e-07
-1.37963e-07
2.21489e-07
5.15492e-07
7.43908e-07
9.09401e-07
1.01707e-06
1.07392e-06
1.08821e-06
1.06875e-06
1.02426e-06
9.62712e-07
8.90999e-07
8.14589e-07
7.37603e-07
6.62863e-07
5.92178e-07
5.26549e-07
4.6642e-07
4.11852e-07
3.62662e-07
3.1854e-07
2.79091e-07
2.43914e-07
2.12613e-07
1.84821e-07
1.60173e-07
1.38383e-07
1.19122e-07
1.02178e-07
8.7226e-08
7.41782e-08
6.2671e-08
5.27421e-08
4.39362e-08
3.64928e-08
2.97653e-08
2.42838e-08
1.90324e-08
1.5095e-08
1.07599e-08
8.17383e-09
3.7703e-09
4.21725e-09
-8.04985e-06
-7.76525e-06
-7.56024e-06
-7.28207e-06
-6.95882e-06
-6.58402e-06
-6.15868e-06
-5.68478e-06
-5.16707e-06