/*--------------------------------*- C++ -*----------------------------------*\
| =========                 |                                                 |
| \\      /  F ield         | foam-extend: Open Source CFD                    |
|  \\    /   O peration     | Version:     4.0                                |
|   \\  /    A nd           | Web:         http://www.foam-extend.org         |
|    \\/     M anipulation  |                                                 |
\*---------------------------------------------------------------------------*/
FoamFile
{
    version     2.0;
    format      ascii;
    class       surfaceScalarField;
    location    "55";
    object      phi;
}
// * * * * * * * * * * * * * * * * * * * * * * * * * * * * * * * * * * * * * //

dimensions      [0 3 -1 0 0 0 0];

internalField   nonuniform List<scalar> 
71520
(
-2.22926e-10
2.21308e-10
1.61761e-12
-8.974e-10
6.69519e-10
4.95658e-12
-2.05628e-09
1.15027e-09
8.60302e-12
-3.73255e-09
1.66371e-09
1.25635e-11
-5.95909e-09
2.2097e-09
1.6842e-11
-8.76839e-09
2.78786e-09
2.14393e-11
-1.21923e-08
3.39754e-09
2.63532e-11
-1.62617e-08
4.03782e-09
3.15775e-11
-2.10062e-08
4.70746e-09
3.71018e-11
-2.6454e-08
5.40484e-09
4.2911e-11
-3.26309e-08
6.1279e-09
4.8985e-11
-3.95603e-08
6.87411e-09
5.52976e-11
-4.72624e-08
7.64033e-09
6.18169e-11
-5.57536e-08
8.42266e-09
6.85045e-11
-6.50452e-08
9.21632e-09
7.5315e-11
-7.51429e-08
1.00155e-08
8.21957e-11
-8.60451e-08
1.08131e-08
8.90857e-11
-9.77411e-08
1.16001e-08
9.59143e-11
-1.10209e-07
1.23657e-08
1.02598e-10
-1.23415e-07
1.30962e-08
1.09041e-10
-1.37305e-07
1.37748e-08
1.15126e-10
-1.51806e-07
1.43802e-08
1.20716e-10
-1.66817e-07
1.48862e-08
1.25644e-10
-1.82208e-07
1.52604e-08
1.29706e-10
-1.97803e-07
1.54631e-08
1.32659e-10
-2.13383e-07
1.54459e-08
1.34207e-10
-2.28668e-07
1.51503e-08
1.34e-10
-2.43304e-07
1.45047e-08
1.31625e-10
-2.56846e-07
1.34153e-08
1.26567e-10
1.17752e-08
-2.68739e-07
1.18258e-10
-2.19667e-10
4.40976e-10
-8.84446e-10
1.3343e-09
-2.02687e-09
2.2927e-09
-3.67962e-09
3.31646e-09
-5.87522e-09
4.4053e-09
-8.64578e-09
5.55843e-09
-1.20228e-08
6.77453e-09
-1.60367e-08
8.05172e-09
-2.07166e-08
9.38744e-09
-2.60902e-08
1.07784e-08
-3.21826e-08
1.22203e-08
-3.90165e-08
1.3708e-08
-4.66113e-08
1.52351e-08
-5.49822e-08
1.67936e-08
-6.41395e-08
1.83737e-08
-7.40876e-08
1.99636e-08
-8.48231e-08
2.15486e-08
-9.63338e-08
2.31108e-08
-1.08596e-07
2.46277e-08
-1.21572e-07
2.60719e-08
-1.35206e-07
2.7409e-08
-1.49422e-07
2.85961e-08
-1.64116e-07
2.95802e-08
-1.79151e-07
3.02959e-08
-1.94351e-07
3.06631e-08
-2.0949e-07
3.05845e-08
-2.24282e-07
2.99428e-08
-2.38372e-07
2.8595e-08
-2.51314e-07
2.63565e-08
2.30047e-08
-2.62543e-07
-2.13234e-10
6.54212e-10
-8.58854e-10
1.97992e-09
-1.96876e-09
3.40261e-09
-3.57497e-09
4.92267e-09
-5.70932e-09
6.53965e-09
-8.40323e-09
8.25233e-09
-1.16873e-08
1.00587e-08
-1.55913e-08
1.19557e-08
-2.01433e-08
1.39394e-08
-2.53697e-08
1.60048e-08
-3.12946e-08
1.81452e-08
-3.79391e-08
2.03525e-08
-4.53209e-08
2.26169e-08
-5.34532e-08
2.49259e-08
-6.23442e-08
2.72646e-08
-7.19953e-08
2.96147e-08
-8.24002e-08
3.19535e-08
-9.3543e-08
3.42535e-08
-1.05396e-07
3.64805e-08
-1.17916e-07
3.8592e-08
-1.31043e-07
4.05359e-08
-1.44693e-07
4.22467e-08
-1.58757e-07
4.36439e-08
-1.73089e-07
4.46283e-08
-1.87505e-07
4.5079e-08
-2.0177e-07
4.48488e-08
-2.15588e-07
4.37613e-08
-2.28597e-07
4.16036e-08
-2.40346e-07
3.81061e-08
3.2918e-08
-2.5026e-07
-2.03806e-10
8.58019e-10
-8.21324e-10
2.59744e-09
-1.88349e-09
4.46478e-09
-3.42134e-09
6.46052e-09
-5.46569e-09
8.584e-09
-8.04685e-09
1.08335e-08
-1.11943e-08
1.32061e-08
-1.49364e-08
1.56978e-08
-1.92998e-08
1.83029e-08
-2.43094e-08
2.10143e-08
-2.99872e-08
2.3823e-08
-3.63523e-08
2.67176e-08
-4.34197e-08
2.96843e-08
-5.11998e-08
3.27061e-08
-5.96973e-08
3.57621e-08
-6.89097e-08
3.88271e-08
-7.88263e-08
4.187e-08
-8.94255e-08
4.48528e-08
-1.00674e-07
4.77285e-08
-1.12521e-07
5.04393e-08
-1.24898e-07
5.29136e-08
-1.37715e-07
5.50628e-08
-1.50848e-07
5.67776e-08
-1.64144e-07
5.79241e-08
-1.77404e-07
5.83392e-08
-1.90381e-07
5.78253e-08
-2.02766e-07
5.61462e-08
-2.14181e-07
5.30191e-08
-2.24177e-07
4.81023e-08
4.08915e-08
-2.32151e-07
-1.91642e-10
1.04966e-09
-7.72867e-10
3.17867e-09
-1.77334e-09
5.46525e-09
-3.22275e-09
7.90993e-09
-5.15055e-09
1.05118e-08
-7.58557e-09
1.32685e-08
-1.05558e-08
1.61763e-08
-1.40877e-08
1.92297e-08
-1.82062e-08
2.24214e-08
-2.29337e-08
2.57419e-08
-2.82901e-08
2.91793e-08
-3.42913e-08
3.27188e-08
-4.09491e-08
3.63422e-08
-4.82702e-08
4.00272e-08
-5.62546e-08
4.37466e-08
-6.4895e-08
4.74674e-08
-7.41743e-08
5.11494e-08
-8.40645e-08
5.4743e-08
-9.45237e-08
5.81877e-08
-1.05493e-07
6.14088e-08
-1.16894e-07
6.43145e-08
-1.28623e-07
6.67913e-08
-1.40545e-07
6.87001e-08
-1.52492e-07
6.98708e-08
-1.6425e-07
7.00968e-08
-1.75553e-07
6.91289e-08
-1.86077e-07
6.66703e-08
-1.95427e-07
6.23693e-08
-2.03148e-07
5.5823e-08
4.63449e-08
-2.08601e-07
-1.7707e-10
1.22673e-09
-7.14763e-10
3.71636e-09
-1.64114e-09
6.39163e-09
-2.98425e-09
9.25304e-09
-4.77179e-09
1.22993e-08
-7.03078e-09
1.55275e-08
-9.78715e-09
1.89326e-08
-1.30653e-08
2.25078e-08
-1.68877e-08
2.62437e-08
-2.12741e-08
3.01283e-08
-2.62411e-08
3.41463e-08
-3.18013e-08
3.8279e-08
-3.79625e-08
4.25033e-08
-4.47264e-08
4.67911e-08
-5.20879e-08
5.11081e-08
-6.00332e-08
5.54128e-08
-6.85384e-08
5.96545e-08
-7.75669e-08
6.37716e-08
-8.70675e-08
6.76883e-08
-9.69708e-08
7.13121e-08
-1.07186e-07
7.45292e-08
-1.17594e-07
7.72e-08
-1.28048e-07
7.91538e-08
-1.3836e-07
8.01827e-08
-1.48298e-07
8.00354e-08
-1.57579e-07
7.84099e-08
-1.65858e-07
7.49491e-08
-1.72721e-07
6.92317e-08
-1.77696e-07
6.0798e-08
4.87563e-08
-1.80107e-07
-1.60475e-10
1.38721e-09
-6.48514e-10
4.2044e-09
-1.49027e-09
7.23339e-09
-2.7118e-09
1.04746e-08
-4.33871e-09
1.39263e-08
-6.39582e-09
1.75846e-08
-8.90667e-09
2.14435e-08
-1.18931e-08
2.54942e-08
-1.53746e-08
2.97252e-08
-1.93677e-08
3.41214e-08
-2.38855e-08
3.86641e-08
-2.89362e-08
4.33298e-08
-3.4523e-08
4.80901e-08
-4.06422e-08
5.29103e-08
-4.72823e-08
5.77482e-08
-5.44225e-08
6.25529e-08
-6.20303e-08
6.72624e-08
-7.00601e-08
7.18013e-08
-7.84496e-08
7.60778e-08
-8.71172e-08
7.99797e-08
-9.59578e-08
8.33698e-08
-1.04839e-07
8.60807e-08
-1.13593e-07
8.79087e-08
-1.22017e-07
8.8606e-08
-1.29857e-07
8.78758e-08
-1.36809e-07
8.53615e-08
-1.42507e-07
8.06469e-08
-1.46512e-07
7.32372e-08
-1.48335e-07
6.26205e-08
4.76666e-08
-1.47245e-07
-1.42283e-10
1.52949e-09
-5.75788e-10
4.63791e-09
-1.32445e-09
7.98205e-09
-2.41202e-09
1.15621e-08
-3.86168e-09
1.53759e-08
-5.69564e-09
1.94186e-08
-7.93467e-09
2.36825e-08
-1.05976e-08
2.81571e-08
-1.37005e-08
3.28281e-08
-1.72563e-08
3.76772e-08
-2.12737e-08
4.26815e-08
-2.57564e-08
4.78125e-08
-3.0702e-08
5.30357e-08
-3.61008e-08
5.83091e-08
-4.19342e-08
6.35816e-08
-4.81733e-08
6.8792e-08
-5.47767e-08
7.38657e-08
-6.1688e-08
7.87126e-08
-6.88332e-08
8.3223e-08
-7.61172e-08
8.72638e-08
-8.34201e-08
9.06727e-08
-9.05922e-08
9.32528e-08
-9.74494e-08
9.47658e-08
-1.03766e-07
9.49229e-08
-1.0927e-07
9.33796e-08
-1.13633e-07
8.97247e-08
-1.16465e-07
8.34787e-08
-1.17303e-07
7.4075e-08
-1.15641e-07
6.09585e-08
4.26865e-08
-1.10661e-07
-1.22949e-10
1.65244e-09
-4.98362e-10
5.01332e-09
-1.14767e-09
8.63136e-09
-2.09199e-09
1.25065e-08
-3.35174e-09
1.66357e-08
-4.94618e-09
2.1013e-08
-6.8929e-09
2.56293e-08
-9.20725e-09
3.04715e-08
-1.19016e-08
3.55225e-08
-1.49846e-08
4.07602e-08
-1.84602e-08
4.61572e-08
-2.2327e-08
5.16793e-08
-2.65764e-08
5.72852e-08
-3.1192e-08
6.29247e-08
-3.61476e-08
6.85373e-08
-4.14055e-08
7.40499e-08
-4.69144e-08
7.93746e-08
-5.26065e-08
8.44047e-08
-5.83952e-08
8.90117e-08
-6.41713e-08
9.30398e-08
-6.97989e-08
9.63003e-08
-7.51113e-08
9.85652e-08
-7.99053e-08
9.95598e-08
-8.39361e-08
9.89537e-08
-8.69089e-08
9.63524e-08
-8.8471e-08
9.12868e-08
-8.82038e-08
8.32115e-08
-8.56221e-08
7.14933e-08
-8.02353e-08
5.55716e-08
3.35146e-08
-7.10633e-08
-1.02935e-10
1.75538e-09
-4.1805e-10
5.32844e-09
-9.63995e-10
9.17731e-09
-1.75896e-09
1.33014e-08
-2.82026e-09
1.7697e-08
-4.16386e-09
2.23566e-08
-5.8038e-09
2.72692e-08
-7.75157e-09
3.24192e-08
-1.00153e-08
3.77862e-08
-1.2599e-08
4.3344e-08
-1.55016e-08
4.90597e-08
-1.87155e-08
5.48932e-08
-2.22261e-08
6.07957e-08
-2.60094e-08
6.6708e-08
-3.00311e-08
7.2559e-08
-3.42441e-08
7.82629e-08
-3.85864e-08
8.37169e-08
-4.29786e-08
8.87969e-08
-4.73206e-08
9.33537e-08
-5.14885e-08
9.72078e-08
-5.53306e-08
1.00142e-07
-5.86629e-08
1.01897e-07
-6.12635e-08
1.0216e-07
-6.28666e-08
1.00557e-07
-6.31549e-08
9.66406e-08
-6.17523e-08
8.98842e-08
-5.82121e-08
7.96713e-08
-5.20039e-08
6.52851e-08
-4.27114e-08
4.62791e-08
2.01292e-08
-2.9326e-08
-8.26944e-11
1.83807e-09
-3.36635e-10
5.58238e-09
-7.77438e-10
9.61811e-09
-1.42009e-09
1.39441e-08
-2.27849e-09
1.85554e-08
-3.36496e-09
2.34431e-08
-4.68966e-09
2.85939e-08
-6.25982e-09
3.39894e-08
-8.07899e-09
3.96054e-08
-1.01461e-08
4.5411e-08
-1.24543e-08
5.13679e-08
-1.49901e-08
5.7429e-08
-1.77316e-08
6.35373e-08
-2.06474e-08
6.96238e-08
-2.36943e-08
7.56058e-08
-2.68153e-08
8.13839e-08
-2.99373e-08
8.68389e-08
-3.29687e-08
9.18283e-08
-3.5796e-08
9.61811e-08
-3.82805e-08
9.96923e-08
-4.02548e-08
1.02117e-07
-4.15172e-08
1.0316e-07
-4.18267e-08
1.0247e-07
-4.08964e-08
9.96265e-08
-3.83876e-08
9.41319e-08
-3.39036e-08
8.54002e-08
-2.69847e-08
7.27524e-08
-1.70744e-08
5.53748e-08
-3.16365e-09
3.23683e-08
3.06827e-09
1.38973e-08
-6.26547e-11
1.90073e-09
-2.55801e-10
5.77552e-09
-5.918e-10
9.95411e-09
-1.08217e-09
1.44344e-08
-1.73714e-09
1.92103e-08
-2.56508e-09
2.4271e-08
-3.57188e-09
2.96007e-08
-4.76021e-09
3.51777e-08
-6.12862e-09
4.09738e-08
-7.67055e-09
4.6953e-08
-9.37326e-09
5.30706e-08
-1.12166e-08
5.92723e-08
-1.31714e-08
6.54921e-08
-1.51981e-08
7.16505e-08
-1.72441e-08
7.76519e-08
-1.92423e-08
8.33821e-08
-2.11081e-08
8.87048e-08
-2.27379e-08
9.3458e-08
-2.40045e-08
9.74477e-08
-2.47549e-08
1.00443e-07
-2.48051e-08
1.02167e-07
-2.39358e-08
1.02291e-07
-2.18874e-08
1.00421e-07
-1.83535e-08
9.60927e-08
-1.2975e-08
8.87534e-08
-5.33278e-09
7.77579e-08
5.06023e-09
6.23594e-08
1.87341e-08
4.17009e-08
3.64002e-08
1.47023e-08
-1.92397e-08
5.87082e-08
-4.31935e-11
1.94392e-09
-1.77054e-10
5.90938e-09
-4.10503e-10
1.01876e-08
-7.51394e-10
1.47753e-08
-1.20602e-09
1.9665e-08
-1.77852e-09
2.48435e-08
-2.47022e-09
3.02924e-08
-3.27885e-09
3.59864e-08
-4.19768e-09
4.18926e-08
-5.21435e-09
4.79696e-08
-6.30985e-09
5.41661e-08
-7.45712e-09
6.04196e-08
-8.6193e-09
6.66543e-08
-9.74794e-09
7.27791e-08
-1.0781e-08
7.8685e-08
-1.1641e-08
8.42421e-08
-1.22322e-08
8.9296e-08
-1.24385e-08
9.36643e-08
-1.21192e-08
9.71285e-08
-1.11064e-08
9.94299e-08
-9.20021e-09
1.00261e-07
-6.16437e-09
9.92548e-08
-1.72114e-09
9.59782e-08
4.45429e-09
8.99172e-08
1.27399e-08
8.04678e-08
2.35735e-08
6.69243e-08
3.74606e-08
4.84723e-08
5.49883e-08
2.41732e-08
7.67423e-08
-7.0518e-09
-4.61336e-08
1.03636e-07
-2.46241e-11
1.96854e-09
-1.0166e-10
5.98642e-09
-2.36454e-10
1.03224e-08
-4.33029e-10
1.49719e-08
-6.93561e-10
1.99255e-08
-1.01775e-09
2.51677e-08
-1.40208e-09
3.06767e-08
-1.83897e-09
3.64233e-08
-2.31604e-09
4.23697e-08
-2.81501e-09
4.84686e-08
-3.31044e-09
5.46615e-08
-3.76774e-09
6.08769e-08
-4.14167e-09
6.70282e-08
-4.3748e-09
7.30122e-08
-4.39559e-09
7.87058e-08
-4.11622e-09
8.39627e-08
-3.42995e-09
8.86098e-08
-2.20776e-09
9.24421e-08
-2.95904e-10
9.52166e-08
2.48838e-09
9.66456e-08
6.36063e-09
9.63884e-08
1.15736e-08
9.40419e-08
1.84219e-08
8.91299e-08
2.72476e-08
8.10916e-08
3.8446e-08
6.92694e-08
5.24723e-08
5.2898e-08
6.98489e-08
3.10957e-08
9.11696e-08
2.85243e-09
1.17067e-07
-3.29487e-08
-7.74942e-08
1.48427e-07
-7.20211e-12
1.97574e-09
-3.06676e-11
6.00988e-09
-7.20498e-11
1.03637e-08
-1.31384e-10
1.50312e-08
-2.06563e-10
2.00007e-08
-2.92708e-10
2.52539e-08
-3.81399e-10
3.07654e-08
-4.5976e-10
3.65016e-08
-5.09386e-10
4.24193e-08
-5.0538e-10
4.84646e-08
-4.14804e-10
5.4571e-08
-1.95307e-10
6.06574e-08
2.06365e-10
6.66266e-08
8.56285e-10
7.23623e-08
1.83542e-09
7.77266e-08
3.24201e-09
8.25561e-08
5.1944e-09
8.66574e-08
7.83403e-09
8.98024e-08
1.13284e-08
9.17223e-08
1.58745e-08
9.20994e-08
2.17032e-08
9.05597e-08
2.90829e-08
8.66622e-08
3.83242e-08
7.98885e-08
4.97854e-08
6.96304e-08
6.38774e-08
5.51774e-08
8.10701e-08
3.57053e-08
1.01899e-07
1.02669e-08
1.26969e-07
-2.2218e-08
1.56941e-07
-6.29204e-08
-1.13234e-07
1.92681e-07
8.7615e-12
1.96698e-09
3.47807e-11
5.98386e-09
8.02216e-11
1.03183e-08
1.49187e-10
1.49623e-08
2.48261e-10
1.99016e-08
3.87166e-10
2.5115e-08
5.79557e-10
3.0573e-08
8.43926e-10
3.62373e-08
1.20468e-09
4.20586e-08
1.69343e-09
4.79758e-08
2.3504e-09
5.3914e-08
3.22558e-09
5.97822e-08
4.38055e-09
6.54716e-08
5.89047e-09
7.08524e-08
7.84618e-09
7.57709e-08
1.03568e-08
8.00454e-08
1.35524e-08
8.34618e-08
1.75867e-08
8.57682e-08
2.26404e-08
8.66685e-08
2.89247e-08
8.58151e-08
3.6685e-08
8.27994e-08
4.62048e-08
7.71425e-08
5.781e-08
6.82833e-08
7.18738e-08
5.55666e-08
8.88211e-08
3.82301e-08
1.09134e-07
1.5392e-08
1.33359e-07
-1.39573e-08
1.62108e-07
-5.09675e-08
1.96061e-07
-9.68737e-08
-1.53243e-07
2.36071e-07
2.31312e-11
1.94385e-09
9.41148e-11
5.91288e-09
2.19011e-10
1.01934e-08
4.06151e-10
1.47751e-08
6.66715e-10
1.9641e-08
1.01541e-09
2.47663e-08
1.47129e-09
3.01172e-08
2.0587e-09
3.56498e-08
2.8084e-09
4.13089e-08
3.75882e-09
4.70254e-08
4.95732e-09
5.27155e-08
6.46183e-09
5.82777e-08
8.3425e-09
6.35909e-08
1.06838e-08
6.85111e-08
1.35866e-08
7.28681e-08
1.7171e-08
7.6461e-08
2.15786e-08
7.90542e-08
2.69755e-08
8.03713e-08
3.35555e-08
8.00886e-08
4.15435e-08
7.7827e-08
5.11993e-08
7.31436e-08
6.2821e-08
6.55208e-08
7.6749e-08
5.43553e-08
9.33702e-08
3.89454e-08
1.13122e-07
1.84784e-08
1.36497e-07
-7.98263e-09
1.64045e-07
-4.15062e-08
1.96388e-07
-8.33105e-08
2.34214e-07
-1.34699e-07
-1.97396e-07
2.78367e-07
3.58865e-11
1.90797e-09
1.4718e-10
5.80159e-09
3.43871e-10
9.99671e-09
6.38586e-10
1.44804e-08
1.04718e-09
1.92324e-08
1.58943e-09
2.4224e-08
2.28993e-09
2.94166e-08
3.17901e-09
3.47608e-08
4.29388e-09
4.0194e-08
5.67988e-09
4.56394e-08
7.39187e-09
5.10035e-08
9.49585e-09
5.61737e-08
1.20707e-08
6.10161e-08
1.52103e-08
6.53715e-08
1.9026e-08
6.90524e-08
2.36485e-08
7.18385e-08
2.92311e-08
7.34716e-08
3.59523e-08
7.36502e-08
4.40189e-08
7.2022e-08
5.36695e-08
6.81764e-08
6.5178e-08
6.16352e-08
7.88564e-08
5.18424e-08
9.5059e-08
3.81526e-08
1.14185e-07
1.9819e-08
1.36684e-07
-4.01996e-09
1.63053e-07
-3.43518e-08
1.93848e-07
-7.23016e-08
2.29691e-07
-1.19153e-07
2.71268e-07
-1.76277e-07
-2.4555e-07
3.19422e-07
4.70337e-11
1.86093e-09
1.93992e-10
5.65463e-09
4.54804e-10
9.7359e-09
8.46414e-10
1.40888e-08
1.3894e-09
1.86895e-08
2.1087e-09
2.35047e-08
3.0345e-09
2.84908e-08
4.20322e-09
3.35921e-08
5.65862e-09
3.87386e-08
7.45315e-09
4.38449e-08
9.64931e-09
4.88073e-08
1.23213e-08
5.35017e-08
1.5557e-08
5.77804e-08
1.94599e-08
6.14685e-08
2.41517e-08
6.43607e-08
2.9774e-08
6.62161e-08
3.64918e-08
6.67538e-08
4.44961e-08
6.56459e-08
5.40068e-08
6.25113e-08
6.52761e-08
5.69071e-08
7.85914e-08
4.83198e-08
9.42789e-08
3.61549e-08
1.12706e-07
1.97257e-08
1.34283e-07
-1.75855e-09
1.59467e-07
-2.9204e-08
1.88762e-07
-6.36463e-08
2.22723e-07
-1.06263e-07
2.61965e-07
-1.58395e-07
3.07168e-07
-2.2148e-07
-2.97544e-07
3.59162e-07
5.66506e-11
1.80428e-09
2.34833e-10
5.47645e-09
5.52401e-10
9.41833e-09
1.03062e-09
1.36106e-08
1.69482e-09
1.80253e-08
2.57514e-09
2.26244e-08
3.70742e-09
2.73586e-08
5.13423e-09
3.21652e-08
6.90602e-09
3.69668e-08
9.08243e-09
4.16685e-08
1.17338e-08
4.6156e-08
1.49426e-08
5.02928e-08
1.8806e-08
5.3917e-08
2.34373e-08
5.68372e-08
2.89684e-08
5.88296e-08
3.55523e-08
5.96323e-08
4.33658e-08
5.89403e-08
5.26124e-08
5.63993e-08
6.35251e-08
5.15985e-08
7.63697e-08
4.40625e-08
9.14475e-08
3.32421e-08
1.09098e-07
1.85046e-08
1.297e-07
-8.76726e-10
1.53675e-07
-2.57335e-08
1.81485e-07
-5.7014e-08
2.13637e-07
-9.5798e-08
2.50681e-07
-1.43307e-07
2.9322e-07
-2.00934e-07
3.41913e-07
-2.70173e-07
-3.53199e-07
3.97569e-07
6.48749e-11
1.73941e-09
2.70226e-10
5.2711e-09
6.37804e-10
9.05075e-09
1.19319e-09
1.30552e-08
1.96645e-09
1.7252e-08
2.99296e-09
2.15979e-08
4.31425e-09
2.60373e-08
5.97912e-09
3.05004e-08
8.04479e-09
3.49011e-08
1.05782e-08
3.91351e-08
1.36576e-08
4.30766e-08
1.73742e-08
4.65762e-08
2.18343e-08
4.94569e-08
2.71611e-08
5.15104e-08
3.34973e-08
5.24934e-08
4.10071e-08
5.21224e-08
4.98795e-08
5.00679e-08
6.03307e-08
4.59482e-08
7.26069e-08
3.93223e-08
8.69876e-08
2.96818e-08
1.03787e-07
1.64422e-08
1.23359e-07
-1.06656e-09
1.46091e-07
-2.36093e-08
1.72413e-07
-5.20558e-08
2.02793e-07
-8.73938e-08
2.37735e-07
-1.3074e-07
2.7778e-07
-1.83351e-07
3.23505e-07
-2.46659e-07
3.7554e-07
-3.22208e-07
-4.1231e-07
4.34651e-07
7.18971e-11
1.66751e-09
3.00904e-10
5.04209e-09
7.12628e-10
8.63903e-09
1.33693e-09
1.24309e-08
2.20864e-09
1.63803e-08
3.36834e-09
2.04382e-08
4.86331e-09
2.45423e-08
6.74863e-09
2.8615e-08
9.08833e-09
3.25614e-08
1.19568e-08
3.62666e-08
1.54403e-08
3.95931e-08
1.9639e-08
4.23776e-08
2.46685e-08
4.44273e-08
3.06622e-08
4.55167e-08
3.77735e-08
4.53821e-08
4.61784e-08
4.37175e-08
5.60781e-08
4.01682e-08
6.77016e-08
3.43246e-08
8.13088e-08
2.57151e-08
9.71925e-08
1.37982e-08
1.1568e-07
-2.04568e-09
1.37136e-07
-2.25221e-08
1.61958e-07
-4.84318e-08
1.90584e-07
-8.06812e-08
2.23481e-07
-1.20291e-07
2.61146e-07
-1.68405e-07
3.04101e-07
-2.26306e-07
3.52892e-07
-2.95451e-07
4.081e-07
-3.77416e-07
-4.74635e-07
4.70425e-07
7.79498e-11
1.58956e-09
3.27765e-10
4.79228e-09
7.78866e-10
8.18793e-09
1.46537e-09
1.17444e-08
2.42684e-09
1.54188e-08
3.70907e-09
1.91559e-08
5.36514e-09
2.28862e-08
7.45641e-09
2.65238e-08
1.00538e-08
2.9964e-08
1.32393e-08
3.30811e-08
1.71075e-08
3.5725e-08
2.17673e-08
3.77178e-08
2.7344e-08
3.88507e-08
3.39813e-08
3.88794e-08
4.18437e-08
3.75197e-08
5.11192e-08
3.44421e-08
6.20213e-08
2.92661e-08
7.47923e-08
2.15536e-08
8.97053e-08
1.08021e-08
1.07066e-07
-3.56276e-09
1.27215e-07
-2.21941e-08
1.50525e-07
-4.5832e-08
1.77404e-07
-7.53115e-08
2.08293e-07
-1.1157e-07
2.43655e-07
-1.55652e-07
2.83972e-07
-2.08723e-07
3.29739e-07
-2.72073e-07
3.81456e-07
-3.47167e-07
4.3964e-07
-4.35599e-07
-5.39882e-07
5.04887e-07
8.3295e-11
1.50627e-09
3.51826e-10
4.52375e-09
8.38783e-10
7.70097e-09
1.58251e-09
1.10007e-08
2.62727e-09
1.43741e-08
4.02411e-09
1.77591e-08
5.83187e-09
2.10785e-08
8.11828e-09
2.42374e-08
1.09613e-08
2.7121e-08
1.44505e-08
2.95919e-08
1.86888e-08
3.14866e-08
2.37943e-08
3.26123e-08
2.9902e-08
3.2743e-08
3.71663e-08
3.16152e-08
4.57629e-08
2.89231e-08
5.58918e-08
2.43132e-08
6.77793e-08
1.73785e-08
8.16809e-08
7.65206e-09
9.78824e-08
-5.39948e-09
1.16702e-07
-2.23824e-08
1.38491e-07
-4.39828e-08
1.63632e-07
-7.09737e-08
1.92541e-07
-1.0422e-07
2.25655e-07
-1.44683e-07
2.63427e-07
-1.93425e-07
3.06319e-07
-2.51614e-07
3.54781e-07
-3.20536e-07
4.09256e-07
-4.01642e-07
4.70177e-07
-4.9652e-07
-6.07696e-07
5.3799e-07
8.82106e-11
1.41806e-09
3.74171e-10
4.23779e-09
8.94801e-10
7.18034e-09
1.69264e-09
1.02028e-08
2.81664e-09
1.32501e-08
4.32308e-09
1.62527e-08
6.2766e-09
1.91249e-08
8.75136e-09
2.17626e-08
1.18323e-08
2.404e-08
1.56169e-08
2.58073e-08
2.02166e-08
2.6887e-08
2.57585e-08
2.70704e-08
3.23877e-08
2.61138e-08
4.02693e-08
2.37336e-08
4.95905e-08
1.96018e-08
6.05636e-08
1.33401e-08
7.34276e-08
4.51457e-09
8.84503e-08
-7.37069e-09
1.0593e-07
-2.28793e-08
1.26197e-07
-4.26493e-08
1.49613e-07
-6.73984e-08
1.76568e-07
-9.79292e-08
2.0748e-07
-1.35131e-07
2.42779e-07
-1.79983e-07
2.82903e-07
-2.33549e-07
3.28275e-07
-2.96987e-07
3.79295e-07
-3.71555e-07
4.3632e-07
-4.58667e-07
4.99686e-07
-5.59886e-07
-6.77632e-07
5.69623e-07
9.2978e-11
1.32508e-09
3.959e-10
3.93487e-09
9.49379e-10
6.62686e-09
1.80012e-09
9.35208e-09
3.00176e-09
1.20484e-08
4.61582e-09
1.46386e-08
6.71275e-09
1.7028e-08
9.37315e-09
1.91022e-08
1.26892e-08
2.0724e-08
1.67661e-08
2.17304e-08
2.17239e-08
2.19292e-08
2.76992e-08
2.10952e-08
3.4847e-08
1.8966e-08
4.33433e-08
1.52373e-08
5.33871e-08
9.55799e-09
6.52026e-08
1.52465e-09
7.9041e-08
-9.32383e-09
9.51824e-08
-2.35121e-08
1.13937e-07
-4.1634e-08
1.35646e-07
-6.43582e-08
1.60679e-07
-9.24316e-08
1.89432e-07
-1.26682e-07
2.22318e-07
-1.68018e-07
2.59758e-07
-2.17423e-07
3.02163e-07
-2.75954e-07
3.49909e-07
-3.44733e-07
4.0332e-07
-4.24967e-07
4.62639e-07
-5.17986e-07
5.281e-07
-6.25348e-07
-7.49119e-07
5.99587e-07
9.7869e-11
1.22721e-09
4.18077e-10
3.61466e-09
1.0049e-09
6.04003e-09
1.90921e-09
8.44778e-09
3.18929e-09
1.07683e-08
4.91191e-09
1.2916e-08
7.15336e-09
1.47866e-08
1.00008e-08
1.62548e-08
1.35535e-08
1.71713e-08
1.79247e-08
1.73592e-08
2.3243e-08
1.66108e-08
2.96544e-08
1.46838e-08
3.73243e-08
1.12961e-08
4.64394e-08
6.12214e-09
5.72102e-08
-1.21284e-09
6.98725e-08
-1.11377e-08
8.46894e-08
-2.41407e-08
1.01953e-07
-4.07753e-08
1.21984e-07
-6.1665e-08
1.45132e-07
-8.75067e-08
1.71774e-07
-1.19073e-07
2.02305e-07
-1.57213e-07
2.37133e-07
-2.02845e-07
2.76659e-07
-2.56949e-07
3.2126e-07
-3.20554e-07
3.71252e-07
-3.94725e-07
4.26861e-07
-4.80576e-07
4.88166e-07
-5.79291e-07
5.55303e-07
-6.92485e-07
-8.21389e-07
6.27573e-07
1.03135e-10
1.12408e-09
4.4169e-10
3.2761e-09
1.06359e-09
5.41813e-09
2.02383e-09
7.48754e-09
3.38539e-09
9.40678e-09
5.22025e-09
1.10811e-08
7.61058e-09
1.23962e-08
1.06501e-08
1.32153e-08
1.44453e-08
1.3376e-08
1.91173e-08
1.26871e-08
2.48036e-08
1.09246e-08
3.16594e-08
7.82795e-09
3.98603e-08
3.0952e-09
4.96038e-08
-3.62136e-09
6.11112e-08
-1.27203e-08
7.46298e-08
-2.46562e-08
9.04338e-08
-3.99447e-08
1.08826e-07
-5.91674e-08
1.30136e-07
-8.29753e-08
1.54721e-07
-1.12092e-07
1.82959e-07
-1.47311e-07
2.15243e-07
-1.89497e-07
2.51967e-07
-2.39569e-07
2.93511e-07
-2.98493e-07
3.40207e-07
-3.67251e-07
3.92302e-07
-4.46819e-07
4.49897e-07
-5.38171e-07
5.1283e-07
-6.42224e-07
5.81067e-07
-7.60722e-07
-8.93443e-07
6.53121e-07
1.08998e-10
1.01508e-09
4.67608e-10
2.91749e-09
1.1274e-09
4.75834e-09
2.14748e-09
6.46745e-09
3.59551e-09
7.95875e-09
5.5487e-09
9.12793e-09
8.09513e-09
9.84982e-09
1.1335e-08
9.97545e-09
1.53822e-08
9.32887e-09
2.03656e-08
7.70363e-09
2.64314e-08
4.85886e-09
3.37442e-08
5.15114e-10
4.24895e-08
-5.65005e-09
5.2875e-08
-1.40068e-08
6.51326e-08
-2.4978e-08
7.95204e-08
-3.9044e-08
9.63229e-08
-5.67471e-08
1.15851e-07
-7.86958e-08
1.38443e-07
-1.05567e-07
1.64457e-07
-1.38106e-07
1.94271e-07
-1.77125e-07
2.28269e-07
-2.23495e-07
2.66829e-07
-2.78129e-07
3.10302e-07
-3.41965e-07
3.58976e-07
-4.15925e-07
4.13028e-07
-5.00872e-07
4.7242e-07
-5.97563e-07
5.36694e-07
-7.06498e-07
6.05298e-07
-8.29326e-07
-9.63794e-07
6.7565e-07
1.15642e-10
8.99435e-10
4.96554e-10
2.53657e-09
1.19794e-09
4.05695e-09
2.28305e-09
5.38234e-09
3.82418e-09
6.41762e-09
5.90382e-09
7.0483e-09
8.61591e-09
7.13773e-09
1.20672e-08
6.52417e-09
1.63787e-08
5.0174e-09
2.16872e-08
2.39504e-09
2.81474e-08
-1.60134e-09
3.59331e-08
-7.27051e-09
4.5239e-08
-1.4956e-08
5.62829e-08
-2.50507e-08
6.93068e-08
-3.8002e-08
8.45782e-08
-5.43153e-08
1.0239e-07
-7.45589e-08
1.2306e-07
-9.9366e-08
1.4693e-07
-1.29436e-07
1.74358e-07
-1.65534e-07
2.05715e-07
-2.08482e-07
2.41372e-07
-2.59152e-07
2.81684e-07
-3.18442e-07
3.26971e-07
-3.87252e-07
3.77481e-07
-4.66436e-07
4.33336e-07
-5.56727e-07
4.94432e-07
-6.58658e-07
5.60201e-07
-7.72267e-07
6.29066e-07
-8.98191e-07
-1.02898e-06
6.94253e-07
1.23204e-10
7.7623e-10
5.29083e-10
2.13069e-09
1.27648e-09
3.30955e-09
2.43277e-09
4.22605e-09
4.07491e-09
4.77549e-09
6.29064e-09
4.83258e-09
9.17973e-09
4.24865e-09
1.28554e-08
2.84853e-09
1.74457e-08
4.2708e-10
2.30953e-08
-3.25455e-09
2.99669e-08
-8.47294e-09
3.8243e-08
-1.55466e-08
4.81277e-08
-2.48407e-08
5.98479e-08
-3.67709e-08
7.36544e-08
-5.18085e-08
8.98226e-08
-7.04835e-08
1.08652e-07
-9.33883e-08
1.30464e-07
-1.21179e-07
1.55601e-07
-1.54573e-07
1.84415e-07
-1.94349e-07
2.17267e-07
-2.41333e-07
2.54504e-07
-2.9639e-07
2.96455e-07
-3.60393e-07
3.43399e-07
-4.34195e-07
3.95544e-07
-5.18581e-07
4.52984e-07
-6.14168e-07
5.15681e-07
-7.21354e-07
5.83481e-07
-8.40068e-07
6.559e-07
-9.70611e-07
-1.10994e-06
7.36859e-07
1.31788e-10
6.4444e-10
5.65589e-10
1.69689e-09
1.3639e-09
2.51124e-09
2.59821e-09
2.99174e-09
4.35014e-09
3.02357e-09
6.71261e-09
2.4701e-09
9.79119e-09
1.17007e-09
1.37054e-08
-1.06569e-09
1.85903e-08
-4.45781e-09
2.45979e-08
-9.26215e-09
3.18989e-08
-1.57739e-08
4.06841e-08
-2.43319e-08
5.1166e-08
-3.53225e-08
6.35796e-08
-4.91845e-08
7.81833e-08
-6.64121e-08
9.52585e-08
-8.75588e-08
1.15109e-07
-1.13238e-07
1.38056e-07
-1.44126e-07
1.64438e-07
-1.80954e-07
1.94597e-07
-2.24508e-07
2.28874e-07
-2.7561e-07
2.67588e-07
-3.35104e-07
3.11026e-07
-4.03831e-07
3.59415e-07
-4.82583e-07
4.12886e-07
-5.72052e-07
4.71461e-07
-6.72743e-07
5.35055e-07
-7.84948e-07
6.03524e-07
-9.08537e-07
6.76479e-07
-1.04357e-06
-1.18663e-06
7.53169e-07
1.41445e-10
5.02995e-10
6.06282e-10
1.23206e-09
1.46066e-09
1.65686e-09
2.7802e-09
1.67221e-09
4.65114e-09
1.15263e-09
7.17154e-09
-5.03107e-11
1.04526e-08
-2.11101e-09
1.46201e-08
-5.23317e-09
1.98157e-08
-9.6534e-09
2.61986e-08
-1.56451e-08
3.3947e-08
-2.35223e-08
4.32594e-08
-3.36442e-08
5.43556e-08
-4.64187e-08
6.74776e-08
-6.23065e-08
8.28896e-08
-8.18241e-08
1.00877e-07
-1.05546e-07
1.21744e-07
-1.34105e-07
1.4581e-07
-1.68192e-07
1.73403e-07
-2.08547e-07
2.04849e-07
-2.55954e-07
2.40462e-07
-3.11223e-07
2.80526e-07
-3.75168e-07
3.25273e-07
-4.48577e-07
3.74853e-07
-5.32164e-07
4.29304e-07
-6.26503e-07
4.88539e-07
-7.31978e-07
5.52319e-07
-8.48728e-07
6.20236e-07
-9.76454e-07
6.91465e-07
-1.11479e-06
-1.25972e-06
7.64557e-07
1.52187e-10
3.50807e-10
6.51208e-10
7.33036e-10
1.56688e-09
7.41194e-10
2.97892e-09
2.60158e-10
4.97815e-09
-8.46602e-10
7.66767e-09
-2.73983e-09
1.11642e-08
-5.60753e-09
1.55994e-08
-9.6684e-09
2.11215e-08
-1.51755e-08
2.78963e-08
-2.24199e-08
3.6109e-08
-3.1735e-08
4.59647e-08
-4.35e-08
5.76898e-08
-5.81438e-08
7.15315e-08
-7.61483e-08
8.77579e-08
-9.80505e-08
1.06656e-07
-1.24444e-07
1.28527e-07
-1.55977e-07
1.53683e-07
-1.93349e-07
1.82439e-07
-2.37303e-07
2.15099e-07
-2.88614e-07
2.51942e-07
-3.48066e-07
2.93205e-07
-4.16431e-07
3.39058e-07
-4.9443e-07
3.89561e-07
-5.82667e-07
4.44651e-07
-6.81593e-07
5.04118e-07
-7.91445e-07
5.67552e-07
-9.12161e-07
6.34317e-07
-1.04322e-06
7.03366e-07
-1.18384e-06
-1.32965e-06
7.73291e-07
1.63989e-10
1.86819e-10
7.00271e-10
1.96756e-10
1.68232e-09
-2.4086e-10
3.19395e-09
-1.25147e-09
5.33045e-09
-2.9831e-09
8.19983e-09
-5.60921e-09
1.19242e-08
-9.33186e-09
1.66409e-08
-1.43851e-08
2.25041e-08
-2.10387e-08
2.96859e-08
-2.96018e-08
3.83776e-08
-4.04266e-08
4.879e-08
-5.39124e-08
6.11546e-08
-7.05083e-08
7.57224e-08
-9.0716e-08
9.27628e-08
-1.15091e-07
1.12561e-07
-1.44242e-07
1.35414e-07
-1.78829e-07
1.61621e-07
-2.19556e-07
1.91477e-07
-2.6716e-07
2.25259e-07
-3.22396e-07
2.63207e-07
-3.86014e-07
3.05503e-07
-4.58728e-07
3.52239e-07
-5.41166e-07
4.03389e-07
-6.33817e-07
4.5879e-07
-7.36994e-07
5.18105e-07
-8.5076e-07
5.80779e-07
-9.74835e-07
6.46037e-07
-1.10848e-06
7.12759e-07
-1.25057e-06
-1.39656e-06
7.7967e-07
1.76797e-10
1.00223e-11
7.53248e-10
-3.79693e-10
1.80649e-09
-1.2941e-09
3.42434e-09
-2.86932e-09
5.70649e-09
-5.26525e-09
8.76572e-09
-8.66844e-09
1.27292e-08
-1.32953e-08
1.77397e-08
-1.93956e-08
2.39569e-08
-2.72559e-08
3.15585e-08
-3.72033e-08
4.07408e-08
-4.9609e-08
5.17196e-08
-6.48912e-08
6.47296e-08
-8.35183e-08
8.00236e-08
-1.0601e-07
9.78703e-08
-1.32938e-07
1.1855e-07
-1.64922e-07
1.42351e-07
-2.02629e-07
1.69556e-07
-2.46761e-07
2.00436e-07
-2.9804e-07
2.35234e-07
-3.57193e-07
2.74144e-07
-4.24924e-07
3.17286e-07
-5.01869e-07
3.64671e-07
-5.88551e-07
4.1619e-07
-6.85337e-07
4.71582e-07
-7.92386e-07
5.30389e-07
-9.09567e-07
5.91952e-07
-1.0364e-06
6.55414e-07
-1.17194e-06
7.19651e-07
-1.3148e-06
-1.46045e-06
7.83547e-07
1.90525e-10
-1.80502e-10
8.09816e-10
-9.98982e-10
1.93863e-09
-2.42291e-09
3.66873e-09
-4.59943e-09
6.10407e-09
-7.70059e-09
9.362e-09
-1.19264e-08
1.35745e-08
-1.75078e-08
1.88893e-08
-2.47104e-08
2.5471e-08
-3.38377e-08
3.35021e-08
-4.52344e-08
4.31831e-08
-5.929e-08
5.47331e-08
-7.64412e-08
6.83888e-08
-9.71739e-08
8.44024e-08
-1.22024e-07
1.03039e-07
-1.51575e-07
1.24573e-07
-1.86455e-07
1.49276e-07
-2.27333e-07
1.77413e-07
-2.74898e-07
2.09226e-07
-3.29853e-07
2.44918e-07
-3.92886e-07
2.84632e-07
-4.64637e-07
3.28416e-07
-5.45653e-07
3.7621e-07
-6.36345e-07
4.2782e-07
-7.36947e-07
4.82884e-07
-8.47449e-07
5.40848e-07
-9.67531e-07
6.00982e-07
-1.09653e-06
6.62382e-07
-1.23334e-06
7.23956e-07
-1.37638e-06
-1.52124e-06
7.8474e-07
2.05083e-10
-3.85584e-10
8.6958e-10
-1.66348e-09
2.07782e-09
-3.63115e-09
3.92542e-09
-6.44703e-09
6.52044e-09
-1.02956e-08
9.98454e-09
-1.53905e-08
1.44541e-08
-2.19774e-08
2.00814e-08
-3.03377e-08
2.70354e-08
-4.07916e-08
3.55022e-08
-5.37012e-08
4.56857e-08
-6.94735e-08
5.78068e-08
-8.85623e-08
7.21021e-08
-1.11469e-07
8.88215e-08
-1.38743e-07
1.08224e-07
-1.70977e-07
1.30571e-07
-2.08803e-07
1.5612e-07
-2.52882e-07
1.85111e-07
-3.03889e-07
2.17752e-07
-3.62494e-07
2.54203e-07
-4.29336e-07
2.94544e-07
-5.04979e-07
3.3876e-07
-5.89869e-07
3.86716e-07
-6.84301e-07
4.38134e-07
-7.88365e-07
4.92559e-07
-9.01874e-07
5.49369e-07
-1.02434e-06
6.0778e-07
-1.15494e-06
6.6687e-07
-1.29243e-06
7.25599e-07
-1.43511e-06
-1.57878e-06
7.83144e-07
2.20354e-10
-6.05937e-10
9.32086e-10
-2.37521e-09
2.22302e-09
-4.92209e-09
4.19249e-09
-8.41651e-09
6.95246e-09
-1.30556e-08
1.06286e-08
-1.90666e-08
1.53613e-08
-2.67102e-08
2.13068e-08
-3.62832e-08
2.86375e-08
-4.81223e-08
3.75426e-08
-6.26063e-08
4.82278e-08
-8.01587e-08
6.09142e-08
-1.01249e-07
7.58366e-08
-1.26392e-07
9.32399e-08
-1.56146e-07
1.13374e-07
-1.91111e-07
1.36487e-07
-2.31916e-07
1.62814e-07
-2.79209e-07
1.92567e-07
-3.33642e-07
2.25918e-07
-3.95845e-07
2.62975e-07
-4.66393e-07
3.03759e-07
-5.45763e-07
3.48189e-07
-6.34299e-07
3.96058e-07
-7.3217e-07
4.47002e-07
-8.39309e-07
5.00494e-07
-9.55367e-07
5.55858e-07
-1.0797e-06
6.12275e-07
-1.21136e-06
6.68828e-07
-1.34898e-06
7.24545e-07
-1.49082e-06
-1.63297e-06
7.78736e-07
2.36219e-10
-8.42155e-10
9.96838e-10
-3.13582e-09
2.37308e-09
-6.29833e-09
4.46781e-09
-1.05112e-08
7.39666e-09
-1.59844e-08