/*--------------------------------*- C++ -*----------------------------------*\
| =========                 |                                                 |
| \\      /  F ield         | foam-extend: Open Source CFD                    |
|  \\    /   O peration     | Version:     4.0                                |
|   \\  /    A nd           | Web:         http://www.foam-extend.org         |
|    \\/     M anipulation  |                                                 |
\*---------------------------------------------------------------------------*/
FoamFile
{
    version     2.0;
    format      ascii;
    class       volVectorField;
    location    "55";
    object      U;
}
// * * * * * * * * * * * * * * * * * * * * * * * * * * * * * * * * * * * * * //

dimensions      [0 1 -1 0 0 0 0];

internalField   nonuniform List<vector> 
36000
(
(-3.56279e-07 1.65109e-06 -2.55321e-25)
(-3.56029e-06 4.69175e-06 2.63615e-25)
(-1.0233e-05 7.56653e-06 0)
(-2.04373e-05 1.02676e-05 0)
(-3.41701e-05 1.27881e-05 -2.29464e-25)
(-5.14472e-05 1.51215e-05 -2.17762e-25)
(-7.22819e-05 1.72617e-05 0)
(-9.66598e-05 1.92035e-05 0)
(-0.000124534 2.09427e-05 0)
(-0.000155825 2.24756e-05 0)
(-0.000190422 2.37998e-05 0)
(-0.000228176 2.49132e-05 -3.05315e-25)
(-0.000268906 2.58142e-05 -5.983e-28)
(-0.000312395 2.65017e-05 -2.67151e-25)
(-0.000358383 2.69745e-05 2.4952e-25)
(-0.000406576 2.72318e-05 -2.32105e-25)
(-0.000456636 2.7272e-05 4.32823e-25)
(-0.000508182 2.70932e-05 -2.0115e-25)
(-0.00056079 2.66919e-05 1.86448e-25)
(-0.000613981 2.60635e-05 5.18907e-25)
(-0.000667226 2.52012e-05 1.25046e-29)
(-0.000719932 2.40954e-05 5.91278e-25)
(-0.000771438 2.27337e-05 -1.36293e-25)
(-0.000821004 2.11008e-05 -2.5029e-25)
(-0.000867802 1.9178e-05 -2.301e-25)
(-0.000910906 1.69436e-05 0)
(-0.000949281 1.43725e-05 0)
(-0.000981775 1.14339e-05 0)
(-0.00100707 8.08247e-06 1.57526e-25)
(-0.00102357 4.28073e-06 -2.86303e-25)
(-5.25312e-07 4.97408e-06 0)
(-4.00579e-06 1.41392e-05 0)
(-1.08913e-05 2.28099e-05 0)
(-2.12438e-05 3.09621e-05 9.68268e-25)
(-3.50608e-05 3.85749e-05 -2.26579e-25)
(-5.23575e-05 4.56278e-05 2.17742e-25)
(-7.3147e-05 5.21021e-05 0)
(-9.74146e-05 5.79817e-05 0)
(-0.000125113 6.3253e-05 -7.36975e-25)
(-0.000156163 6.79051e-05 6.91216e-25)
(-0.000190452 7.19293e-05 -6.51742e-25)
(-0.000227833 7.53188e-05 6.09469e-25)
(-0.000268123 7.80686e-05 2.8567e-25)
(-0.000311103 8.01743e-05 2.67132e-25)
(-0.000356513 8.16323e-05 4.98427e-25)
(-0.000404056 8.24391e-05 0)
(-0.000453393 8.25899e-05 -1.29944e-24)
(-0.00050414 8.2078e-05 -1.15573e-27)
(-0.000555868 8.08932e-05 1.49392e-24)
(-0.000608094 7.90207e-05 -1.03791e-24)
(-0.000660284 7.64401e-05 -6.41317e-25)
(-0.000711838 7.31223e-05 5.92512e-25)
(-0.000762088 6.903e-05 -5.45812e-25)
(-0.000810288 6.41166e-05 1.0054e-24)
(-0.000855601 5.83263e-05 7.102e-28)
(-0.000897093 5.15934e-05 8.43952e-25)
(-0.000933721 4.38434e-05 -1.15912e-24)
(-0.00096434 3.49853e-05 0)
(-0.000987636 2.48858e-05 0)
(-0.00100173 1.34275e-05 0)
(-8.58831e-07 8.21429e-06 1.02719e-24)
(-4.88507e-06 2.33574e-05 6.30869e-27)
(-1.21906e-05 3.76922e-05 -1.52298e-24)
(-2.28361e-05 5.1178e-05 1.94282e-24)
(-3.68192e-05 6.37796e-05 -2.29795e-24)
(-5.41548e-05 7.5462e-05 -1.75233e-24)
(-7.48549e-05 8.61933e-05 3.31052e-24)
(-9.89041e-05 9.59456e-05 -1.56087e-24)
(-0.000126255 0.000104696 0)
(-0.000156827 0.000112424 0)
(-0.000190507 0.000119115 0)
(-0.000227147 0.000124757 0)
(-0.000266563 0.000129339 1.14741e-24)
(-0.000308532 0.000132855 -2.67784e-24)
(-0.000352795 0.000135295 2.00106e-24)
(-0.000399048 0.000136655 0)
(-0.000446949 0.000136925 8.68573e-25)
(-0.000496107 0.000136093 -8.06021e-25)
(-0.000546085 0.000134141 0)
(-0.000596393 0.000131044 0)
(-0.000646486 0.000126769 3.21155e-24)
(-0.000695751 0.000121265 -1.77861e-24)
(-0.000743507 0.000114472 0)
(-0.000788993 0.000106312 -8.22375e-29)
(-0.000831358 9.66939e-05 -9.25908e-25)
(-0.000869648 8.55087e-05 -8.53298e-25)
(-0.000902811 7.26356e-05 7.66439e-25)
(-0.000929706 5.79286e-05 7.04872e-25)
(-0.000949031 4.11797e-05 0)
(-0.000958372 2.21949e-05 1.72741e-24)
(-1.34667e-06 1.13193e-05 0)
(-6.17174e-06 3.22007e-05 0)
(-1.40926e-05 5.19834e-05 5.09585e-25)
(-2.51673e-05 7.061e-05 -1.95216e-24)
(-3.93939e-05 8.80301e-05 3.7024e-24)
(-5.67861e-05 0.000104194 -2.63287e-24)
(-7.73543e-05 0.000119054 0)
(-0.000101082 0.000132572 0)
(-0.000127919 0.000144712 -2.22579e-24)
(-0.000157786 0.000155445 2.7872e-24)
(-0.000190567 0.000164747 -1.30726e-24)
(-0.000226113 0.0001726 -1.231e-24)
(-0.000264237 0.000178988 2.30266e-24)
(-0.000304714 0.000183896 -2.14742e-24)
(-0.000347278 0.000187315 -1.00187e-24)
(-0.000391622 0.000189232 0)
(-0.000437396 0.000189633 -3.48817e-24)
(-0.0004842 0.000188501 -4.88712e-27)
(-0.000531587 0.000185808 3.00879e-24)
(-0.000579055 0.00018152 3.81763e-27)
(-0.00062604 0.000175587 2.28164e-27)
(-0.000671915 0.000167941 -4.16436e-28)
(-0.000715978 0.000158496 -1.09835e-24)
(-0.000757447 0.000147146 2.02653e-24)
(-0.000795449 0.000133764 0)
(-0.000829008 0.000118203 1.14419e-27)
(-0.000857049 0.000100298 3.10795e-24)
(-0.00087844 7.98538e-05 -1.42612e-24)
(-0.000891914 5.66084e-05 -3.87199e-24)
(-0.000894216 3.03049e-05 -3.48331e-24)
(-1.97415e-06 1.42406e-05 1.55984e-24)
(-7.82762e-06 4.05343e-05 -3.22685e-24)
(-1.65412e-05 6.54703e-05 2.05175e-24)
(-2.81693e-05 8.89743e-05 1.9644e-24)
(-4.27098e-05 0.000110979 -1.85835e-24)
(-6.01744e-05 0.00013142 8.80671e-25)
(-8.05706e-05 0.000150233 -2.51099e-24)
(-0.000103879 0.000167367 6.31521e-24)
(-0.00013005 0.000182772 -7.36071e-25)
(-0.000158998 0.000196409 1.40491e-24)
(-0.000190609 0.000208244 -1.31955e-24)
(-0.000224728 0.000218249 1.23087e-24)
(-0.000261165 0.000226401 0)
(-0.000299691 0.000232679 0)
(-0.000340035 0.000237066 4.03929e-24)
(-0.000381883 0.000239543 -1.8771e-24)
(-0.000424872 0.000240091 1.74517e-24)
(-0.000468595 0.000238684 1.6221e-24)
(-0.000512589 0.000235286 -3.01848e-24)
(-0.000556334 0.000229848 -4.19669e-24)
(-0.000599249 0.000222308 1.29391e-24)
(-0.000640684 0.000212578 4.79012e-24)
(-0.000679913 0.000200549 -2.20717e-24)
(-0.000716126 0.000186086 1.13272e-26)
(-0.000748424 0.00016903 1.87271e-24)
(-0.0007758 0.000149197 -1.71696e-24)
(-0.000797159 0.000126381 -1.5585e-24)
(-0.00081137 0.000100338 1.29836e-26)
(-0.000817244 7.08215e-05 1.28101e-24)
(-0.000810334 3.74629e-05 2.32738e-24)
(-2.72267e-06 1.69355e-05 4.71101e-24)
(-9.80424e-06 4.82381e-05 -1.08181e-24)
(-1.94654e-05 7.79621e-05 0)
(-3.17555e-05 0.000106015 -9.92066e-25)
(-4.66712e-05 0.000132313 -4.70275e-24)
(-6.4221e-05 0.000156774 5.33701e-24)
(-8.44081e-05 0.000179319 2.53326e-24)
(-0.00010721 0.000199878 -1.57744e-24)
(-0.000132572 0.00021839 1.50694e-24)
(-0.000160407 0.000234801 -7.04052e-24)
(-0.000190596 0.000249065 3.96222e-24)
(-0.000222981 0.000261144 -1.23961e-24)
(-0.000257367 0.000271004 4.64565e-24)
(-0.000293519 0.000278616 -2.1688e-24)
(-0.000331158 0.000283955 -6.08263e-24)
(-0.000369959 0.000286993 3.77751e-24)
(-0.000409551 0.000287703 -3.51591e-24)
(-0.000449511 0.000286049 -6.23539e-27)
(-0.000489359 0.000281985 -1.52989e-24)
(-0.000528557 0.00027545 -1.41072e-24)
(-0.000566499 0.000266364 5.20479e-24)
(-0.00060251 0.000254622 -4.80374e-24)
(-0.000635835 0.000240092 0)
(-0.000665636 0.000222613 -2.04695e-24)
(-0.000690979 0.000201996 -1.87804e-24)
(-0.000710827 0.000178021 -3.46772e-24)
(-0.000724061 0.00015044 3.16451e-24)
(-0.000729545 0.000118998 0)
(-0.000726259 8.34433e-05 6.52064e-24)
(-0.000708091 4.33509e-05 -1.18802e-24)
(-3.5705e-06 1.93674e-05 0)
(-1.20449e-05 5.52097e-05 0)
(-2.27817e-05 8.92948e-05 0)
(-3.58236e-05 0.000121512 -9.43734e-27)
(-5.11647e-05 0.00015176 6.63585e-24)
(-6.88087e-05 0.000179936 -5.3666e-24)
(-8.87526e-05 0.000205947 3.39782e-24)
(-0.000110968 0.000229704 -6.40009e-24)
(-0.000135395 0.000251129 -1.51473e-24)
(-0.000161943 0.000270155 -2.84136e-24)
(-0.000190486 0.000286721 2.66089e-24)
(-0.000220861 0.000300774 1.25572e-24)
(-0.000252867 0.00031227 1.10821e-26)
(-0.000286258 0.000321168 0)
(-0.000320749 0.000327431 -1.31844e-26)
(-0.000356003 0.000331025 1.89708e-24)
(-0.000391635 0.000331908 -1.7596e-24)
(-0.000427205 0.000330035 1.63896e-24)
(-0.000462215 0.000325349 6.10449e-24)
(-0.000496104 0.000317773 -8.19444e-27)
(-0.000528242 0.000307212 -2.62586e-24)
(-0.000557923 0.000293542 -2.41166e-24)
(-0.000584363 0.00027661 -7.72353e-27)
(-0.000606691 0.000256229 -2.08005e-24)
(-0.000623939 0.00023218 -3.79915e-24)
(-0.000635037 0.000204212 5.21317e-24)
(-0.000638844 0.000172073 -1.57225e-24)
(-0.000634211 0.000135448 -2.88745e-24)
(-0.000620385 9.40883e-05 -5.24186e-24)
(-0.000589067 4.76276e-05 2.39882e-24)
(-4.49367e-06 2.15076e-05 -4.28222e-24)
(-1.44866e-05 6.13668e-05 0)
(-2.63976e-05 9.93352e-05 -4.23908e-24)
(-4.02601e-05 0.000135284 5.01951e-24)
(-5.60642e-05 0.000169092 -5.7289e-24)
(-7.38064e-05 0.000200639 7.23896e-24)
(-9.34755e-05 0.00022981 -6.84372e-24)
(-0.000115035 0.000256501 1.59884e-24)
(-0.000138419 0.000280615 3.02451e-24)
(-0.000163527 0.000302067 -8.87714e-27)
(-0.000190228 0.00032078 -5.37679e-24)
(-0.00021835 0.000336686 5.03696e-24)
(-0.000247682 0.000349725 -4.7e-24)
(-0.000277972 0.000359845 -8.79946e-24)
(-0.00030892 0.000366995 6.14769e-24)
(-0.000340178 0.000371127 1.90661e-24)
(-0.000371344 0.000372189 -5.34762e-24)
(-0.00040196 0.000370123 -3.32095e-24)
(-0.000431507 0.000364856 -3.06186e-24)
(-0.000459399 0.0003563 8.54517e-24)
(-0.000484979 0.00034434 -2.65325e-24)
(-0.000507512 0.000328835 8.37039e-27)
(-0.000526182 0.00030961 -4.52405e-24)
(-0.000540086 0.000286451 8.29395e-24)
(-0.00054822 0.000259125 3.79957e-24)
(-0.000549489 0.000227358 -3.48676e-24)
(-0.000542723 0.000190861 2.31961e-26)
(-0.000526719 0.000149299 2.93645e-24)
(-0.000501223 0.000102407 5.29385e-24)
(-0.000455012 4.99084e-05 -7.24712e-24)
(-5.46689e-06 2.33352e-05 4.34233e-24)
(-1.70632e-05 6.66485e-05 -5.61248e-24)
(-3.02147e-05 0.000107983 -4.28609e-24)
(-4.49439e-05 0.000147192 4.06261e-24)
(-6.12343e-05 0.000184134 3.86609e-24)
(-7.90729e-05 0.000218669 -1.81291e-24)
(-9.84376e-05 0.000250663 0)
(-0.000119281 0.000279991 0)
(-0.000141528 0.000306538 1.52742e-24)
(-0.000165068 0.000330198 2.87189e-24)
(-0.000189759 0.000350877 8.1135e-24)
(-0.00021542 0.00036849 -5.06665e-24)
(-0.000241829 0.000382961 -1.87522e-26)
(-0.000268721 0.000394219 4.43656e-24)
(-0.000295782 0.000402201 -2.06909e-24)
(-0.00032265 0.000406843 -3.8503e-24)
(-0.000348905 0.00040808 1.07608e-23)
(-0.000374069 0.000405838 3.32575e-24)
(-0.0003976 0.00040003 1.33751e-26)
(-0.000418885 0.000390552 1.13503e-26)
(-0.00043724 0.000377271 -7.95182e-27)
(-0.000451902 0.000360027 2.4554e-24)
(-0.000462021 0.000338629 6.80081e-24)
(-0.000466665 0.000312848 3.20363e-26)
(-0.000464805 0.000282417 3.84105e-24)
(-0.000455303 0.00024704 -1.06055e-23)
(-0.000436956 0.000206408 -6.45609e-24)
(-0.000408473 0.000160186 1.77581e-26)
(-0.0003705 0.000108072 2.70411e-24)
(-0.000307813 4.98423e-05 4.82514e-24)
(-6.46457e-06 2.48374e-05 -3.29263e-24)
(-1.97068e-05 7.10165e-05 5.67016e-24)
(-3.41326e-05 0.000115174 -2.17898e-24)
(-4.97506e-05 0.000157143 6.19114e-24)
(-6.65353e-05 0.000196764 -3.89827e-24)
(-8.44614e-05 0.000233876 -1.83743e-24)
(-0.000103493 0.000268325 -6.98628e-24)
(-0.000123569 0.000299965 6.57341e-24)
(-0.0001446 0.000328659 -3.11205e-24)
(-0.000166466 0.000354283 0)
(-0.000189009 0.000376722 -5.46439e-24)
(-0.000212035 0.000395872 5.11002e-24)
(-0.000235311 0.000411637 -2.40506e-24)
(-0.000258555 0.000423931 4.46463e-24)
(-0.000281439 0.000432672 2.07593e-24)
(-0.000303582 0.00043778 0)
(-0.000324544 0.000439173 2.70374e-26)
(-0.000343825 0.000436762 0)
(-0.00036086 0.000430444 2.27139e-26)
(-0.000375009 0.000420096 5.78978e-24)
(-0.000385561 0.000405572 5.37174e-24)
(-0.000391723 0.000386697 2.47548e-24)
(-0.000392623 0.000363259 -1.36861e-23)
(-0.000387295 0.000335007 1.63997e-26)
(-0.000374679 0.000301652 0)
(-0.000353599 0.000262877 7.12262e-24)
(-0.000322822 0.000218352 -7.38741e-27)
(-0.000280869 0.000167766 8.99029e-24)
(-0.0002299 0.000110674 0)
(-0.000149575 4.74332e-05 -4.90473e-24)
(-7.46171e-06 2.60099e-05 1.13606e-24)
(-2.23512e-05 7.44546e-05 2.3185e-24)
(-3.80521e-05 0.000120876 4.38548e-24)
(-5.45567e-05 0.000165089 -1.25039e-23)
(-7.18275e-05 0.000206913 5.90225e-24)
(-8.98237e-05 0.000246169 -5.59812e-24)
(-0.000108492 0.000282681 1.4105e-23)
(-0.000127756 0.000316282 -6.64156e-24)
(-0.000147508 0.000346814 6.25494e-24)
(-0.000167612 0.000374132 0)
(-0.000187896 0.000398098 0)
(-0.000208149 0.000418589 7.75381e-24)
(-0.000228121 0.000435489 6.18977e-27)
(-0.000247513 0.000448692 -4.50206e-24)
(-0.000265979 0.000458098 1.45825e-26)
(-0.000283117 0.000463609 -1.79565e-26)
(-0.000298465 0.000465124 -7.26915e-24)
(-0.000311501 0.000462537 3.38048e-24)
(-0.000321633 0.000455726 -3.12796e-24)
(-0.000328197 0.000444559 2.92387e-24)
(-0.000330457 0.000428871 -1.07568e-23)
(-0.000327597 0.000408468 -9.98763e-24)
(-0.00031871 0.000383121 4.61843e-24)
(-0.000302801 0.00035256 8.50553e-24)
(-0.000278786 0.000316476 -3.9233e-24)
(-0.000245461 0.000274534 -3.57697e-24)
(-0.000201577 0.000226381 0)
(-0.000145332 0.000171744 -5.99969e-24)
(-8.05997e-05 0.000109372 0)
(1.71558e-05 4.35983e-05 7.38632e-24)
(-8.43474e-06 2.68559e-05 -2.24168e-24)
(-2.49331e-05 7.69679e-05 7.02481e-24)
(-4.1878e-05 0.000125091 -8.84595e-24)
(-5.92427e-05 0.000171024 -2.59387e-26)
(-7.69744e-05 0.000214566 3.99487e-24)
(-9.50138e-05 0.000255518 -9.43716e-24)
(-0.000113287 0.000293683 7.12468e-24)
(-0.000131697 0.000328875 0)
(-0.000150118 0.000360913 3.17789e-24)
(-0.000168393 0.00038963 -8.90891e-24)
(-0.00018633 0.000414867 0)
(-0.000203701 0.000436479 -1.04146e-23)
(-0.000220234 0.00045433 4.86399e-24)
(-0.000235613 0.000468294 -4.56238e-24)
(-0.000249467 0.000478248 -4.20335e-24)
(-0.000261373 0.000484076 7.87128e-24)
(-0.000270844 0.000485658 0)
(-0.000277335 0.000482869 3.42115e-24)
(-0.000280229 0.00047558 6.32926e-24)
(-0.00027884 0.000463633 -1.17457e-23)
(-0.000272407 0.000446848 5.43164e-24)
(-0.000260082 0.000425018 -5.03841e-24)
(-0.000240934 0.000397895 -4.63846e-24)
(-0.000213942 0.000365192 -4.27754e-24)
(-0.000177998 0.000326583 -1.56421e-26)
(-0.000131883 0.000281719 0)
(-7.4365e-05 0.000230217 -6.67014e-24)
(-3.5983e-06 0.000171819 0)
(7.68738e-05 0.000104583 0)
(0.000191419 3.66419e-05 5.0147e-24)
(-9.36222e-06 2.73856e-05 2.30481e-24)
(-2.73946e-05 7.85808e-05 -2.38138e-24)
(-4.55221e-05 0.000127853 -1.12372e-23)
(-6.36964e-05 0.000174984 1.0654e-23)
(-8.18465e-05 0.000219756 -1.00979e-23)
(-9.98911e-05 0.000261948 1.14803e-23)
(-0.000117733 0.000301347 -7.21176e-24)
(-0.00013525 0.000337743 1.3577e-23)
(-0.000152293 0.000370937 -6.37963e-24)
(-0.000168684 0.000400739 2.98061e-24)
(-0.000184207 0.000426969 2.79546e-24)
(-0.000198613 0.00044946 -5.27587e-24)
(-0.000211606 0.000468054 0)
(-0.000222845 0.000482603 4.58064e-24)
(-0.000231935 0.000492966 1.5841e-26)
(-0.000238426 0.000499004 7.96925e-24)
(-0.00024181 0.000500578 -7.40718e-24)
(-0.000241517 0.000497554 3.44994e-24)
(-0.000236905 0.000489774 -6.35034e-24)
(-0.000227264 0.000477071 1.17899e-23)
(-0.000211805 0.000459251 0)
(-0.000189656 0.000436089 0)
(-0.000159862 0.000407322 9.32668e-24)
(-0.000121381 0.000372646 4.29377e-24)
(-7.30868e-05 0.000331721 -7.93495e-24)
(-1.37467e-05 0.000284186 -3.67171e-24)
(5.7858e-05 0.000229639 6.6695e-24)
(0.000143429 0.000167808 6.15404e-24)
(0.000239955 9.6647e-05 5.62808e-24)
(0.000372328 2.51864e-05 -5.0431e-24)
(-1.02253e-05 2.76152e-05 -1.1588e-23)
(-2.96836e-05 7.93345e-05 2.38138e-24)
(-4.89044e-05 0.000129221 0)
(-6.78149e-05 0.000177042 0)
(-8.63231e-05 0.00022256 -8.18453e-24)
(-0.000104323 0.000265539 3.88509e-24)
(-0.000121689 0.000305746 0)
(-0.000138272 0.000342952 0)
(-0.000153897 0.00037694 -3.2086e-24)
(-0.000168358 0.000407496 9.08944e-24)
(-0.000181416 0.000434421 -2.70084e-26)
(-0.000192793 0.000457526 2.66269e-24)
(-0.000202168 0.000476633 -2.2636e-26)
(-0.000209167 0.000491571 -9.22406e-24)
(-0.000213371 0.000502178 8.62902e-24)
(-0.000214305 0.000508298 3.11616e-26)
(-0.000211437 0.000509774 3.71184e-24)
(-0.000204168 0.000506451 1.38666e-23)
(-0.000191836 0.000498158 -1.92551e-23)
(-0.000173703 0.000484713 0)
(-0.000148955 0.000465906 0)
(-0.000116696 0.000441498 1.01994e-23)
(-7.59514e-05 0.000411213 -4.70034e-24)
(-2.56621e-05 0.000374735 4.35002e-24)
(3.53094e-05 0.000331711 -3.9929e-24)
(0.000108204 0.000281766 2.20346e-23)
(0.000194224 0.00022448 -7.18758e-27)
(0.000294979 0.000159558 -9.24607e-24)
(0.00040762 8.50566e-05 4.08769e-26)
(0.000558225 1.04233e-05 1.01458e-23)
(-1.10078e-05 2.75655e-05 -7.04369e-24)
(-3.17556e-05 7.92836e-05 9.71696e-24)
(-5.19549e-05 0.000129277 0)
(-7.15065e-05 0.000177299 -8.75309e-24)
(-9.02938e-05 0.000223096 4.11511e-24)
(-0.000108183 0.000266416 0)
(-0.000125018 0.000307006 3.70613e-24)
(-0.000140622 0.000344623 -3.48661e-24)
(-0.000154789 0.000379029 -3.24106e-24)
(-0.000167282 0.000409996 -3.04038e-24)
(-0.000177832 0.000437307 2.8478e-24)
(-0.000186125 0.000460748 -1.07031e-23)
(-0.000191808 0.000480118 9.99496e-24)
(-0.000194485 0.000495227 4.68019e-24)
(-0.000193707 0.000505895 -8.6825e-24)
(-0.000188974 0.000511947 3.08403e-26)
(-0.000179727 0.000513211 -7.50809e-24)
(-0.00016534 0.000509513 -6.94663e-24)
(-0.000145121 0.000500668 6.43802e-24)
(-0.000118307 0.000486478 5.98564e-24)
(-8.40602e-05 0.000466721 1.10998e-23)
(-4.14645e-05 0.000441146 -1.02273e-23)
(1.04729e-05 0.000409466 0)
(7.28224e-05 0.000371355 -8.71229e-24)
(0.000146728 0.00032645 -4.04088e-24)
(0.000233431 0.000274366 -3.64941e-24)
(0.000334111 0.000214667 1.01734e-23)
(0.000450331 0.000147049 -6.19684e-24)
(0.000579152 6.95518e-05 -5.59389e-24)
(0.000748162 -7.588e-06 5.15281e-24)
(-1.16978e-05 2.72614e-05 -2.36893e-24)
(-3.35761e-05 7.84945e-05 2.4775e-24)
(-5.46192e-05 0.00012812 -2.3522e-24)
(-7.46987e-05 0.00017588 -2.22862e-24)
(-9.36706e-05 0.000221508 4.16524e-24)
(-0.000111369 0.000264737 1.18868e-23)
(-0.000127608 0.000305302 -1.49078e-23)
(-0.000142174 0.000342942 3.48659e-24)
(-0.000154827 0.000377401 -3.27317e-24)
(-0.000165301 0.000408433 1.23431e-23)
(-0.000173286 0.000435799 -1.15543e-23)
(-0.000178439 0.000459272 5.37823e-24)
(-0.000180378 0.000478634 -1.5119e-23)
(-0.000178672 0.000493677 -9.39472e-24)
(-0.000172845 0.000504205 1.75036e-23)
(-0.000162363 0.000510024 4.08395e-24)
(-0.000146635 0.000510945 -1.51488e-23)
(-0.000125008 0.000506777 1.40566e-23)
(-9.67641e-05 0.000497324 -6.5045e-24)
(-6.11134e-05 0.000482374 -6.0424e-24)
(-1.71959e-05 0.000461693 3.2706e-26)
(3.59227e-05 0.000435022 0)
(9.92496e-05 0.000402066 4.76936e-24)
(0.000173863 0.000362493 0)
(0.000260908 0.000315931 8.05905e-24)
(0.000361616 0.000261992 3.92627e-26)
(0.000477139 0.000200222 0)
(0.000609007 0.000130322 3.43762e-26)
(0.000754063 5.01879e-05 -5.65314e-24)
(0.000941556 -2.87846e-05 5.18041e-24)
(-1.22862e-05 2.67319e-05 0)
(-3.51184e-05 7.70437e-05 -2.4775e-24)
(-5.68523e-05 0.000125867 -7.11255e-24)
(-7.73285e-05 0.000172935 1.57109e-23)
(-9.63727e-05 0.000217969 -1.27401e-23)
(-0.000113786 0.000260691 -3.97221e-24)
(-0.000129346 0.000300826 1.12852e-23)
(-0.000142803 0.000338097 -3.56106e-24)
(-0.000153881 0.000372237 3.3392e-24)
(-0.000162275 0.000402983 -6.23476e-24)
(-0.000167642 0.000430081 5.82895e-24)
(-0.000169604 0.000453287 -5.45112e-24)
(-0.000167742 0.000472369 -4.33863e-26)
(-0.000161593 0.000487103 3.37851e-27)
(-0.000150645 0.000497277 4.43008e-24)
(-0.00013433 0.000502681 0)
(-0.000112027 0.000503113 7.58692e-24)
(-8.30522e-05 0.000498368 -7.03943e-24)
(-4.66598e-05 0.000488238 0)
(-2.03572e-06 0.000472501 6.04203e-24)
(5.17022e-05 0.000450915 1.61772e-26)
(0.000115505 0.000423215 -5.1795e-24)
(0.000190392 0.000389101 -1.43555e-23)
(0.000277444 0.000348237 -8.83889e-24)
(0.0003778 0.000300251 0)
(0.000492677 0.000244752 -7.45024e-24)
(0.000623179 0.000181275 0)
(0.00077082 0.000109528 -6.26462e-24)
(0.00093213 2.71682e-05 0)
(0.00113813 -5.29781e-05 -1.02929e-23)
(-1.27672e-05 2.60066e-05 0)
(-3.63625e-05 7.50116e-05 0)
(-5.86186e-05 0.000122643 0)
(-7.93433e-05 0.000168625 -9.07568e-24)
(-9.833e-05 0.000212672 1.28371e-23)
(-0.000115344 0.000254499 -8.09486e-24)
(-0.000130125 0.00029382 3.82925e-24)
(-0.000142384 0.000330349 7.15934e-24)
(-0.000151808 0.000363808 0)
(-0.000158051 0.000393921 -6.32306e-24)
(-0.000160732 0.000420423 1.17643e-23)
(-0.000159436 0.000443058 -1.40479e-26)
(-0.000153706 0.000461579 -6.80201e-27)
(-0.000143042 0.000475751 -4.75673e-24)
(-0.000126892 0.000485348 4.46004e-24)
(-0.000104657 0.000490147 0)
(-7.56814e-05 0.000489934 -1.53535e-23)
(-3.92506e-05 0.000484495 1.42171e-23)
(5.41047e-06 0.000473612 -6.58721e-24)
(5.91409e-05 0.000457056 0)
(0.000122844 0.00043458 -5.63487e-24)
(0.000197486 0.000405915 5.20651e-24)
(0.000284094 0.000370763 4.78187e-24)
(0.000383748 0.000328788 4.39077e-24)
(0.000497574 0.000279621 0)
(0.000626761 0.000222875 7.51407e-24)
(0.00077235 0.000158076 0)
(0.000935847 8.49414e-05 0)
(0.00111339 8.17918e-07 5.86037e-24)
(0.00133788 -7.98288e-05 1.02865e-23)
(-1.31376e-05 2.51147e-05 0)
(-3.72958e-05 7.24789e-05 0)
(-5.98928e-05 0.000118572 0)
(-8.07025e-05 0.000163116 9.18255e-24)
(-9.94841e-05 0.000205819 8.66995e-24)
(-0.000115965 0.000246389 -1.2299e-23)
(-0.000129846 0.000284536 3.86475e-24)
(-0.000140798 0.000319968 -7.20218e-24)
(-0.000148466 0.000352398 6.77958e-24)
(-0.000152463 0.000381544 -1.27323e-23)
(-0.000152369 0.000407131 1.98739e-26)
(-0.000147726 0.000428893 1.87193e-26)
(-0.000138039 0.000446575 5.20097e-24)
(-0.000122766 0.000459931 0)
(-0.000101318 0.000468724 -1.3407e-23)
(-7.30584e-05 0.000472724 8.32322e-24)
(-3.72969e-05 0.000471709 7.69105e-24)
(6.71329e-06 0.000465456 -7.17465e-24)
(5.9777e-05 0.000453742 6.64242e-24)
(0.000122759 0.000436333 -6.12581e-24)
(0.000196582 0.000412982 1.13289e-23)
(0.000282227 0.000383422 -5.23228e-24)
(0.000380724 0.000347357 0)
(0.000493149 0.00030446 1.77723e-23)
(0.000620602 0.00025437 -1.63948e-23)
(0.000764222 0.000196712 9.54387e-27)
(0.000924995 0.000131001 -6.91072e-24)
(0.0011044 5.69705e-05 -6.31835e-24)
(0.00129811 -2.84105e-05 -5.75785e-24)
(0.001541 -0.000108848 0)
(-1.33963e-05 2.40846e-05 0)
(-3.79112e-05 6.95244e-05 0)
(-6.06575e-05 0.000113781 4.87167e-24)
(-8.13744e-05 0.000156573 -9.24327e-24)
(-9.97853e-05 0.000197609 -8.76656e-24)
(-0.00011558 0.000236595 1.23903e-23)
(-0.000128416 0.000273236 -3.91135e-24)
(-0.000137924 0.00030724 -7.30861e-24)
(-0.000143708 0.000338315 3.44315e-24)
(-0.000145336 0.000366175 0)
(-0.000142346 0.000390539 1.19775e-23)
(-0.000134239 0.000411138 -1.1201e-23)
(-0.000120475 0.00042771 0)
(-0.00010047 0.000440002 0)
(-7.35973e-05 0.000447771 -4.52705e-24)
(-3.91801e-05 0.000450783 -8.40443e-24)
(3.50849e-06 0.00044881 7.79289e-24)
(5.52489e-05 0.000441627 7.17477e-24)
(0.000116876 0.000429007 -1.33227e-23)
(0.00018928 0.000410719 -6.17634e-24)
(0.000273404 0.000386516 5.70559e-24)
(0.000370238 0.000356139 -5.25283e-24)
(0.000480813 0.0003193 4.84849e-24)
(0.00060619 0.000275686 0)
(0.000747421 0.000224953 -1.06759e-26)
(0.000905603 0.000166739 2.26555e-23)
(0.00108163 0.000100555 -6.93101e-24)
(0.00127695 2.61566e-05 0)
(0.00148671 -5.99321e-05 1.16227e-23)
(0.0017478 -0.000139403 -1.03387e-23)
(-1.35441e-05 2.29429e-05 0)
(-3.82058e-05 6.62224e-05 -1.04633e-23)
(-6.09008e-05 0.000108387 9.88115e-24)
(-8.13333e-05 0.000149157 4.71569e-24)
(-9.919e-05 0.000188242 -8.87978e-24)
(-0.000114121 0.000225348 -4.14947e-24)
(-0.000125743 0.000260184 1.96394e-23)
(-0.000133644 0.000292456 -1.84694e-23)
(-0.000137382 0.000321874 1.04135e-23)
(-0.000136485 0.000348151 6.50623e-24)
(-0.000130445 0.000371007 6.07729e-24)
(-0.000118717 0.000390169 0)
(-0.000100718 0.000405374 -1.05013e-23)
(-7.58211e-05 0.000416368 9.79392e-24)
(-4.3357e-05 0.000422905 1.36045e-23)
(-2.60919e-06 0.000424751 -8.50304e-24)
(4.71874e-05 0.000421677 5.07642e-26)
(0.000106848 0.000413459 -7.23383e-24)
(0.000177238 0.000399872 6.6684e-24)
(0.000259273 0.000380688 6.17664e-24)
(0.000353913 0.000355672 2.70433e-26)
(0.000462155 0.000324572 0)
(0.000585023 0.000287116 9.74954e-24)
(0.000723537 0.000243016 0)
(0.000878713 0.000191945 8.25323e-24)
(0.00105158 0.000133559 2.30293e-26)
(0.00124291 6.73717e-05 6.93424e-24)
(0.00145408 -6.83035e-06 -1.57491e-26)
(0.00167966 -9.30343e-05 -2.31723e-23)
(0.00195862 -0.000170729 1.55843e-23)
(-1.35825e-05 2.17133e-05 0)
(-3.81787e-05 6.26406e-05 -1.05847e-23)
(-6.06138e-05 0.0001025 2.50808e-23)
(-8.05567e-05 0.000141017 -4.73367e-24)
(-9.7657e-05 0.000177904 0)
(-0.000111525 0.000212872 4.51882e-26)
(-0.000121735 0.000245635 1.58744e-23)
(-0.000127832 0.000275904 -1.49366e-23)
(-0.000129331 0.000303393 -6.93603e-24)
(-0.000125713 0.000327818 6.58616e-24)
(-0.000116427 0.000348904 -2.44038e-23)
(-0.00010088 0.000366379 2.84905e-23)
(-7.84437e-05 0.000379984 -2.12048e-23)
(-4.84481e-05 0.000389466 4.92483e-24)
(-1.01798e-05 0.000394583 -9.14322e-24)
(3.7119e-05 0.000395105 8.48768e-24)
(9.42525e-05 0.000390806 7.93243e-24)
(0.000162071 0.000381466 -7.27648e-24)
(0.000241471 0.000366869 6.7076e-24)
(0.00033339 0.000346797 -6.21915e-24)
(0.000438802 0.000321026 1.91887e-26)
(0.000558706 0.000289321 0)
(0.000694095 0.000251438 -9.74568e-24)
(0.000845959 0.000207107 2.2018e-26)
(0.00101525 0.000156029 1.93125e-26)
(0.00120289 9.7889e-05 7.60194e-24)
(0.00140952 3.22017e-05 -6.96501e-24)
(0.00163639 -4.12041e-05 1.27525e-23)
(0.00187744 -0.000126891 1.16655e-23)
(0.0021737 -0.000201956 0)
(-1.35133e-05 2.04162e-05 1.04004e-23)
(-3.78299e-05 5.88382e-05 -2.69472e-24)
(-5.97884e-05 9.6218e-05 0)
(-7.90226e-05 0.000132288 -4.77725e-24)
(-9.51447e-05 0.000166767 0)
(-0.000107725 0.000199375 -4.24817e-24)
(-0.000116297 0.000229832 0)
(-0.000120361 0.000257861 -1.12622e-23)
(-0.000119388 0.000283181 -6.98166e-24)
(-0.000112814 0.000305518 1.98515e-23)
(-0.00010004 0.000324602 6.13339e-24)
(-8.04285e-05 0.000340171 -1.7186e-23)
(-5.33047e-05 0.00035197 3.58932e-26)
(-1.79525e-05 0.000359755 2.48254e-23)
(2.63852e-05 0.000363293 -3.08302e-26)
(8.05087e-05 0.000362359 -1.71526e-23)
(0.000145261 0.000356736 -7.89642e-24)
(0.000221528 0.000346217 0)
(0.000310234 0.000330595 6.75674e-24)
(0.000412339 0.000309668 6.25051e-24)
(0.000528822 0.00028323 -1.15675e-23)
(0.000660662 0.000251075 0)
(0.000808832 0.000212979 -9.81899e-24)
(0.000974266 0.000168706 -8.99928e-24)
(0.00115782 0.000117989 -8.27745e-24)
(0.00136029 6.05476e-05 -7.57804e-24)
(0.00158211 -4.10164e-06 6.98011e-24)
(0.0018244 -7.6081e-05 -1.27458e-23)
(0.0020804 -0.000160584 2.18584e-26)
(0.00239308 -0.000232139 1.032e-23)
(-1.33381e-05 1.90685e-05 0)
(-3.71581e-05 5.48654e-05 -3.10357e-26)
(-5.84143e-05 8.9625e-05 -1.5428e-23)
(-7.67058e-05 0.000123089 4.84217e-24)
(-9.16078e-05 0.000154986 0)
(-0.000102651 0.000185046 2.15841e-23)
(-0.000109327 0.000213003 -3.65375e-23)
(-0.000111093 0.000238589 7.63571e-24)
(-0.000107377 0.000261537 -1.42333e-23)
(-9.7568e-05 0.000281583 6.71813e-24)
(-8.10199e-05 0.00029847 0)
(-5.70498e-05 0.000311947 0)
(-2.49355e-05 0.00032177 -5.41445e-24)
(1.60845e-05 0.000327708 5.02969e-24)
(6.68118e-05 0.00032954 0)
(0.000128089 0.000327052 8.58511e-24)
(0.000200798 0.000320043 0)
(0.000285857 0.000308319 1.47656e-23)
(0.000384218 0.000291692 -6.82698e-24)
(0.000496851 0.00026998 0)
(0.000624728 0.000243004 -5.84315e-24)
(0.000768815 0.000210582 0)
(0.000930039 0.000172528 1.96702e-23)
(0.00110925 0.000128639 9.061e-24)
(0.00130718 7.86905e-05 8.32209e-24)
(0.00152445 2.24367e-05 0)
(0.00176125 -4.0603e-05 2.04425e-26)
(0.00201849 -0.000110501 6.40063e-24)
(0.0022887 -0.000193127 -1.16747e-23)
(0.00261647 -0.000260303 -1.03139e-23)
(-1.3057e-05 1.76833e-05 1.06439e-23)
(-3.61591e-05 5.07626e-05 -2.78889e-24)
(-5.64772e-05 8.27909e-05 -5.90429e-26)
(-7.35762e-05 0.000113521 1.46968e-23)
(-8.69949e-05 0.000142695 -1.39426e-23)
(-9.6225e-05 0.000170055 -4.34041e-24)
(-0.000100717 0.000195351 -4.33884e-26)
(-9.98864e-05 0.000218329 -3.97034e-26)
(-9.31153e-05 0.000238739 0)
(-7.97483e-05 0.000256332 -1.34319e-23)
(-5.90931e-05 0.000270865 1.88026e-23)
(-3.042e-05 0.000282103 -1.17182e-23)
(7.0394e-06 0.00028982 1.08771e-23)
(5.40921e-05 0.000293801 -5.03018e-24)
(0.000111584 0.000293839 0)
(0.000180398 0.000289741 8.71318e-24)
(0.000261453 0.000281322 -4.41965e-26)
(0.000355699 0.000268409 -7.39081e-24)
(0.000464103 0.000250837 6.84345e-24)
(0.000587637 0.000228453 -6.33421e-24)
(0.000727267 0.000201103 2.33086e-23)
(0.000883925 0.000168643 -2.14728e-23)
(0.00105847 0.000130923 9.89422e-24)
(0.00125163 8.77864e-05 -3.62974e-23)
(0.00146399 3.90511e-05 -1.66418e-23)
(0.00169592 -1.54866e-05 2.32736e-26)
(0.00194732 -7.63107e-05 1.40328e-23)
(0.00221881 -0.000143456 1.91924e-23)
(0.00250219 -0.000223487 -5.85746e-24)
(0.00284317 -0.000285474 0)
(-1.26688e-05 1.62701e-05 -1.07687e-23)
(-3.48247e-05 4.65606e-05 -6.44688e-26)
(-5.39566e-05 7.57711e-05 5.22529e-24)
(-6.95962e-05 0.000103668 4.92579e-24)
(-8.12463e-05 0.000130007 -2.34442e-23)
(-8.83607e-05 0.000154549 3.52929e-23)
(-9.03494e-05 0.000177059 -2.48665e-23)
(-8.65868e-05 0.000197302 3.88611e-23)
(-7.64106e-05 0.000215046 -1.45759e-23)
(-5.91204e-05 0.000230062 -2.0393e-23)
(-3.39792e-05 0.000242126 1.27303e-23)
(-2.10981e-07 0.000251023 5.20266e-26)
(4.2998e-05 0.000256547 5.53606e-24)
(9.64992e-05 0.000258503 0)
(0.000161181 0.000256706 9.42495e-24)
(0.000237966 0.000250985 -8.70042e-24)
(0.000327805 0.000241178 1.61815e-23)
(0.000431668 0.000227138 -7.44805e-24)
(0.000550532 0.00020873 -6.88269e-24)
(0.000685372 0.000185827 -6.35278e-24)
(0.000837126 0.000158313 -1.75053e-23)
(0.00100667 0.000126083 2.15498e-23)
(0.00119476 8.9031e-05 9.89691e-24)
(0.001402 4.7052e-05 -6.60686e-26)
(0.00162873 1.36069e-08 -2.81253e-26)
(0.00187504 -5.22425e-05 0)
(0.00214047 -0.000110205 3.46453e-26)
(0.0024252 -0.00017391 -2.56187e-23)
(0.00272047 -0.000250623 5.73512e-24)
(0.00307202 -0.00030676 -1.05184e-23)
(-1.21702e-05 1.48351e-05 1.20717e-26)
(-3.31415e-05 4.22816e-05 1.68164e-23)
(-5.08248e-05 6.86081e-05 0)