/*--------------------------------*- C++ -*----------------------------------*\
| =========                 |                                                 |
| \\      /  F ield         | foam-extend: Open Source CFD                    |
|  \\    /   O peration     | Version:     4.0                                |
|   \\  /    A nd           | Web:         http://www.foam-extend.org         |
|    \\/     M anipulation  |                                                 |
\*---------------------------------------------------------------------------*/
FoamFile
{
    version     2.0;
    format      ascii;
    class       volScalarField;
    location    "75";
    object      p;
}
// * * * * * * * * * * * * * * * * * * * * * * * * * * * * * * * * * * * * * //

dimensions      [0 2 -2 0 0 0 0];

internalField   nonuniform List<scalar> 
36000
(
-7.45749e-06
-7.49267e-06
-7.52996e-06
-7.56448e-06
-7.59669e-06
-7.62719e-06
-7.65603e-06
-7.68316e-06
-7.70854e-06
-7.73221e-06
-7.75421e-06
-7.77461e-06
-7.79349e-06
-7.81093e-06
-7.82702e-06
-7.84185e-06
-7.85544e-06
-7.86782e-06
-7.87895e-06
-7.88872e-06
-7.89696e-06
-7.90338e-06
-7.90758e-06
-7.90899e-06
-7.90688e-06
-7.90032e-06
-7.88814e-06
-7.86893e-06
-7.84071e-06
-7.80118e-06
-7.46828e-06
-7.503e-06
-7.53981e-06
-7.57388e-06
-7.60569e-06
-7.63581e-06
-7.66431e-06
-7.69112e-06
-7.71621e-06
-7.73961e-06
-7.76137e-06
-7.78156e-06
-7.80024e-06
-7.81752e-06
-7.83347e-06
-7.84818e-06
-7.86169e-06
-7.874e-06
-7.8851e-06
-7.89487e-06
-7.90315e-06
-7.90965e-06
-7.91396e-06
-7.91554e-06
-7.91366e-06
-7.90738e-06
-7.89559e-06
-7.8769e-06
-7.84913e-06
-7.80874e-06
-7.48968e-06
-7.52348e-06
-7.55933e-06
-7.59253e-06
-7.62355e-06
-7.65293e-06
-7.68074e-06
-7.70691e-06
-7.73142e-06
-7.75429e-06
-7.77557e-06
-7.79532e-06
-7.81363e-06
-7.83057e-06
-7.84624e-06
-7.86071e-06
-7.87403e-06
-7.88621e-06
-7.89724e-06
-7.90701e-06
-7.91535e-06
-7.92199e-06
-7.92653e-06
-7.92843e-06
-7.92698e-06
-7.92126e-06
-7.9102e-06
-7.89253e-06
-7.86563e-06
-7.82354e-06
-7.52132e-06
-7.55377e-06
-7.5882e-06
-7.62012e-06
-7.64996e-06
-7.67826e-06
-7.70505e-06
-7.73028e-06
-7.75393e-06
-7.77601e-06
-7.79657e-06
-7.81567e-06
-7.83339e-06
-7.84983e-06
-7.86506e-06
-7.87917e-06
-7.8922e-06
-7.90417e-06
-7.91507e-06
-7.92481e-06
-7.93322e-06
-7.94004e-06
-7.94488e-06
-7.94723e-06
-7.94639e-06
-7.94144e-06
-7.93141e-06
-7.91518e-06
-7.88957e-06
-7.84494e-06
-7.56264e-06
-7.59334e-06
-7.62595e-06
-7.65621e-06
-7.68453e-06
-7.7114e-06
-7.73686e-06
-7.76086e-06
-7.78336e-06
-7.8044e-06
-7.824e-06
-7.84224e-06
-7.8592e-06
-7.87495e-06
-7.88958e-06
-7.90318e-06
-7.9158e-06
-7.92746e-06
-7.93816e-06
-7.94781e-06
-7.95626e-06
-7.96327e-06
-7.96846e-06
-7.97134e-06
-7.97121e-06
-7.96721e-06
-7.95843e-06
-7.94396e-06
-7.92011e-06
-7.87199e-06
-7.61294e-06
-7.64155e-06
-7.67196e-06
-7.70022e-06
-7.72669e-06
-7.75183e-06
-7.77568e-06
-7.79817e-06
-7.81928e-06
-7.83902e-06
-7.85745e-06
-7.87461e-06
-7.89059e-06
-7.90547e-06
-7.91934e-06
-7.93227e-06
-7.94434e-06
-7.95557e-06
-7.96596e-06
-7.97544e-06
-7.98388e-06
-7.99103e-06
-7.99656e-06
-7.99997e-06
-8.00062e-06
-7.99766e-06
-7.99029e-06
-7.97783e-06
-7.95625e-06
-7.9033e-06
-7.67143e-06
-7.69763e-06
-7.72552e-06
-7.75147e-06
-7.77582e-06
-7.79896e-06
-7.82093e-06
-7.84166e-06
-7.86113e-06
-7.87936e-06
-7.89638e-06
-7.91226e-06
-7.92706e-06
-7.94087e-06
-7.95379e-06
-7.96589e-06
-7.97724e-06
-7.98789e-06
-7.99784e-06
-8.00703e-06
-8.01535e-06
-8.02256e-06
-8.02835e-06
-8.03226e-06
-8.03367e-06
-8.03176e-06
-8.02584e-06
-8.01549e-06
-7.99666e-06
-7.93737e-06
-7.73717e-06
-7.76073e-06
-7.78584e-06
-7.80923e-06
-7.83121e-06
-7.85212e-06
-7.87198e-06
-7.89073e-06
-7.90834e-06
-7.92483e-06
-7.94023e-06
-7.95461e-06
-7.96803e-06
-7.98057e-06
-7.99234e-06
-8.00342e-06
-8.01388e-06
-8.02378e-06
-8.03312e-06
-8.04186e-06
-8.0499e-06
-8.05704e-06
-8.06296e-06
-8.06726e-06
-8.06933e-06
-8.06842e-06
-8.06393e-06
-8.05556e-06
-8.03986e-06
-7.97236e-06
-7.80921e-06
-7.82994e-06
-7.85206e-06
-7.87271e-06
-7.89212e-06
-7.91059e-06
-7.92815e-06
-7.94471e-06
-7.96027e-06
-7.97482e-06
-7.9884e-06
-8.00107e-06
-8.0129e-06
-8.02398e-06
-8.03439e-06
-8.04424e-06
-8.05361e-06
-8.06255e-06
-8.07108e-06
-8.07918e-06
-8.08675e-06
-8.09361e-06
-8.09949e-06
-8.10401e-06
-8.10661e-06
-8.10653e-06
-8.10328e-06
-8.09667e-06
-8.0848e-06
-8.00538e-06
-7.88656e-06
-7.90434e-06
-7.92333e-06
-7.94108e-06
-7.95777e-06
-7.97367e-06
-7.98875e-06
-8.00296e-06
-8.01628e-06
-8.02871e-06
-8.04028e-06
-8.05104e-06
-8.06108e-06
-8.07047e-06
-8.07932e-06
-8.08773e-06
-8.09578e-06
-8.10353e-06
-8.11103e-06
-8.11825e-06
-8.12511e-06
-8.13146e-06
-8.13708e-06
-8.14159e-06
-8.14447e-06
-8.14493e-06
-8.14253e-06
-8.13734e-06
-8.13152e-06
-8.03185e-06
-7.96823e-06
-7.98299e-06
-7.99878e-06
-8.01354e-06
-8.02742e-06
-8.04062e-06
-8.0531e-06
-8.06482e-06
-8.07575e-06
-8.08589e-06
-8.09527e-06
-8.10394e-06
-8.11198e-06
-8.11948e-06
-8.12655e-06
-8.13328e-06
-8.13978e-06
-8.1461e-06
-8.1523e-06
-8.15837e-06
-8.16426e-06
-8.16984e-06
-8.17489e-06
-8.17908e-06
-8.18192e-06
-8.18262e-06
-8.18044e-06
-8.17526e-06
-8.18091e-06
-8.04958e-06
-8.0533e-06
-8.06504e-06
-8.0776e-06
-8.08934e-06
-8.10035e-06
-8.11076e-06
-8.12055e-06
-8.12967e-06
-8.13808e-06
-8.14578e-06
-8.15281e-06
-8.1592e-06
-8.16505e-06
-8.17046e-06
-8.17553e-06
-8.18036e-06
-8.18504e-06
-8.18966e-06
-8.19428e-06
-8.19892e-06
-8.20352e-06
-8.20799e-06
-8.21214e-06
-8.21569e-06
-8.21817e-06
-8.21881e-06
-8.21647e-06
-8.20814e-06
-8.22735e-06
-8.07909e-06
-8.14088e-06
-8.14965e-06
-8.15903e-06
-8.16775e-06
-8.17587e-06
-8.18348e-06
-8.19052e-06
-8.19695e-06
-8.20273e-06
-8.20788e-06
-8.21239e-06
-8.21635e-06
-8.21984e-06
-8.22295e-06
-8.2258e-06
-8.22847e-06
-8.23108e-06
-8.23371e-06
-8.23645e-06
-8.23932e-06
-8.2423e-06
-8.24534e-06
-8.24828e-06
-8.25084e-06
-8.25259e-06
-8.25278e-06
-8.25083e-06
-8.24593e-06
-8.25394e-06
-8.1168e-06
-8.23024e-06
-8.23613e-06
-8.2424e-06
-8.24816e-06
-8.25342e-06
-8.25821e-06
-8.26246e-06
-8.26615e-06
-8.26923e-06
-8.27171e-06
-8.27359e-06
-8.27497e-06
-8.27594e-06
-8.27657e-06
-8.27695e-06
-8.27721e-06
-8.27746e-06
-8.2778e-06
-8.27833e-06
-8.27912e-06
-8.2802e-06
-8.2815e-06
-8.28289e-06
-8.28411e-06
-8.28476e-06
-8.28413e-06
-8.28208e-06
-8.27827e-06
-8.27998e-06
-8.14672e-06
-8.32071e-06
-8.32387e-06
-8.32715e-06
-8.33005e-06
-8.33251e-06
-8.33451e-06
-8.33598e-06
-8.33688e-06
-8.3372e-06
-8.33692e-06
-8.33609e-06
-8.33478e-06
-8.33305e-06
-8.33096e-06
-8.32864e-06
-8.32621e-06
-8.32383e-06
-8.32161e-06
-8.31967e-06
-8.31811e-06
-8.31695e-06
-8.31618e-06
-8.31569e-06
-8.31524e-06
-8.31443e-06
-8.31261e-06
-8.30981e-06
-8.30578e-06
-8.30493e-06
-8.1684e-06
-8.41178e-06
-8.41236e-06
-8.41282e-06
-8.41298e-06
-8.41273e-06
-8.41201e-06
-8.41074e-06
-8.40887e-06
-8.40637e-06
-8.40329e-06
-8.39966e-06
-8.39548e-06
-8.39082e-06
-8.3858e-06
-8.38056e-06
-8.37526e-06
-8.37003e-06
-8.365e-06
-8.36033e-06
-8.35612e-06
-8.35244e-06
-8.34928e-06
-8.34657e-06
-8.3441e-06
-8.34151e-06
-8.33814e-06
-8.33415e-06
-8.32932e-06
-8.32694e-06
-8.18336e-06
-8.50306e-06
-8.50125e-06
-8.49906e-06
-8.4966e-06
-8.49375e-06
-8.49037e-06
-8.4864e-06
-8.48179e-06
-8.4765e-06
-8.47054e-06
-8.46394e-06
-8.45675e-06
-8.44907e-06
-8.441e-06
-8.43271e-06
-8.42433e-06
-8.41602e-06
-8.40796e-06
-8.40029e-06
-8.39316e-06
-8.38666e-06
-8.38082e-06
-8.3756e-06
-8.37081e-06
-8.3661e-06
-8.36086e-06
-8.35532e-06
-8.34926e-06
-8.34563e-06
-8.19241e-06
-8.59434e-06
-8.59033e-06
-8.58569e-06
-8.58077e-06
-8.57542e-06
-8.56947e-06
-8.56284e-06
-8.55548e-06
-8.54736e-06
-8.53849e-06
-8.5289e-06
-8.51865e-06
-8.50784e-06
-8.4966e-06
-8.48508e-06
-8.47344e-06
-8.46185e-06
-8.45052e-06
-8.43963e-06
-8.42934e-06
-8.41977e-06
-8.41099e-06
-8.40298e-06
-8.39559e-06
-8.3885e-06
-8.38109e-06
-8.37368e-06
-8.366e-06
-8.36127e-06
-8.19615e-06
-8.68557e-06
-8.67957e-06
-8.67266e-06
-8.66544e-06
-8.65771e-06
-8.64927e-06
-8.64004e-06
-8.62997e-06
-8.61903e-06
-8.60724e-06
-8.59461e-06
-8.58122e-06
-8.5672e-06
-8.55266e-06
-8.53776e-06
-8.52269e-06
-8.50765e-06
-8.49287e-06
-8.47855e-06
-8.46488e-06
-8.45203e-06
-8.44008e-06
-8.42906e-06
-8.41884e-06
-8.40912e-06
-8.3993e-06
-8.38975e-06
-8.38011e-06
-8.37435e-06
-8.19514e-06
-8.77684e-06
-8.76903e-06
-8.76004e-06
-8.75066e-06
-8.74068e-06
-8.72985e-06
-8.71808e-06
-8.70534e-06
-8.69159e-06
-8.67685e-06
-8.66115e-06
-8.64458e-06
-8.62726e-06
-8.60931e-06
-8.59092e-06
-8.57229e-06
-8.55366e-06
-8.53527e-06
-8.51735e-06
-8.50014e-06
-8.48382e-06
-8.46853e-06
-8.4543e-06
-8.44106e-06
-8.42851e-06
-8.41606e-06
-8.40414e-06
-8.39227e-06
-8.38549e-06
-8.18998e-06
-8.86838e-06
-8.85892e-06
-8.84801e-06
-8.83662e-06
-8.82448e-06
-8.81134e-06
-8.7971e-06
-8.78172e-06
-8.76518e-06
-8.74749e-06
-8.7287e-06
-8.70891e-06
-8.68822e-06
-8.66679e-06
-8.64481e-06
-8.62253e-06
-8.60019e-06
-8.57807e-06
-8.55643e-06
-8.53554e-06
-8.51562e-06
-8.49682e-06
-8.47925e-06
-8.46283e-06
-8.4473e-06
-8.43203e-06
-8.41751e-06
-8.40313e-06
-8.39534e-06
-8.18132e-06
-8.96051e-06
-8.94955e-06
-8.93686e-06
-8.92356e-06
-8.90936e-06
-8.89399e-06
-8.87733e-06
-8.85936e-06
-8.84004e-06
-8.8194e-06
-8.79751e-06
-8.77445e-06
-8.75035e-06
-8.72538e-06
-8.69975e-06
-8.67374e-06
-8.64761e-06
-8.62168e-06
-8.59623e-06
-8.57156e-06
-8.54793e-06
-8.52554e-06
-8.50451e-06
-8.48481e-06
-8.46614e-06
-8.44786e-06
-8.43053e-06
-8.41338e-06
-8.40453e-06
-8.16987e-06
-9.05367e-06
-9.04132e-06
-9.02696e-06
-9.01185e-06
-8.99566e-06
-8.97811e-06
-8.95907e-06
-8.93852e-06
-8.91644e-06
-8.89287e-06
-8.86787e-06
-8.84152e-06
-8.81397e-06
-8.78542e-06
-8.75611e-06
-8.72633e-06
-8.69636e-06
-8.66655e-06
-8.63723e-06
-8.60873e-06
-8.58134e-06
-8.5553e-06
-8.53073e-06
-8.50761e-06
-8.48566e-06
-8.46419e-06
-8.44382e-06
-8.42359e-06
-8.41353e-06
-8.15642e-06
-9.14837e-06
-9.13471e-06
-9.11875e-06
-9.10187e-06
-9.08375e-06
-9.06405e-06
-9.04266e-06
-9.01956e-06
-8.99474e-06
-8.96823e-06
-8.9401e-06
-8.91045e-06
-8.87944e-06
-8.84731e-06
-8.81429e-06
-8.78071e-06
-8.74689e-06
-8.71318e-06
-8.67997e-06
-8.64761e-06
-8.61643e-06
-8.58668e-06
-8.55849e-06
-8.53185e-06
-8.50647e-06
-8.48161e-06
-8.45791e-06
-8.43421e-06
-8.42256e-06
-8.14189e-06
-9.24517e-06
-9.23023e-06
-9.21271e-06
-9.1941e-06
-9.17405e-06
-9.15222e-06
-9.12849e-06
-9.10284e-06
-9.07528e-06
-9.04583e-06
-9.01457e-06
-8.98162e-06
-8.94716e-06
-8.91143e-06
-8.87471e-06
-8.83733e-06
-8.79965e-06
-8.76206e-06
-8.72496e-06
-8.68875e-06
-8.65376e-06
-8.62024e-06
-8.58837e-06
-8.5581e-06
-8.52912e-06
-8.50062e-06
-8.47322e-06
-8.44556e-06
-8.43155e-06
-8.12752e-06
-9.34467e-06
-9.32844e-06
-9.30934e-06
-9.28899e-06
-9.26701e-06
-9.24304e-06
-9.21697e-06
-9.18877e-06
-9.15846e-06
-9.12606e-06
-9.09166e-06
-9.05541e-06
-9.01751e-06
-8.9782e-06
-8.93779e-06
-8.89664e-06
-8.85513e-06
-8.81368e-06
-8.77272e-06
-8.73265e-06
-8.69382e-06
-8.65651e-06
-8.62087e-06
-8.58685e-06
-8.55408e-06
-8.52164e-06
-8.49005e-06
-8.45782e-06
-8.44007e-06
-8.11519e-06
-9.44745e-06
-9.42989e-06
-9.40917e-06
-9.38703e-06
-9.36309e-06
-9.33695e-06
-9.3085e-06
-9.27773e-06
-9.24464e-06
-9.20928e-06
-9.17176e-06
-9.13222e-06
-9.09088e-06
-9.04802e-06
-9.00395e-06
-8.95906e-06
-8.91376e-06
-8.8685e-06
-8.82369e-06
-8.77977e-06
-8.7371e-06
-8.69595e-06
-8.65647e-06
-8.61855e-06
-8.58175e-06
-8.54501e-06
-8.50863e-06
-8.47101e-06
-8.44621e-06
-8.10616e-06
-9.55409e-06
-9.53511e-06
-9.51268e-06
-9.48869e-06
-9.46272e-06
-9.43435e-06
-9.40348e-06
-9.3701e-06
-9.33422e-06
-9.29588e-06
-9.25522e-06
-9.2124e-06
-9.16765e-06
-9.12126e-06
-9.07357e-06
-9.025e-06
-8.97596e-06
-8.9269e-06
-8.87827e-06
-8.83051e-06
-8.78398e-06
-8.73895e-06
-8.69552e-06
-8.65354e-06
-8.61243e-06
-8.57102e-06
-8.52907e-06
-8.48436e-06
-8.44246e-06
-8.09343e-06
-9.66511e-06
-9.6446e-06
-9.62035e-06
-9.5944e-06
-9.56631e-06
-9.53565e-06
-9.5023e-06
-9.46625e-06
-9.42753e-06
-9.3862e-06
-9.3424e-06
-9.2963e-06
-9.24816e-06
-9.19828e-06
-9.14702e-06
-9.0948e-06
-9.04205e-06
-8.98923e-06
-8.93681e-06
-8.88521e-06
-8.83479e-06
-8.78581e-06
-8.73831e-06
-8.69208e-06
-8.64644e-06
-8.60012e-06
-8.55177e-06
-8.49709e-06
-8.41754e-06
-8.0711e-06
-9.78098e-06
-9.7588e-06
-9.73259e-06
-9.70456e-06
-9.67424e-06
-9.64119e-06
-9.60528e-06
-9.5665e-06
-9.5249e-06
-9.48055e-06
-9.4336e-06
-9.38423e-06
-9.33272e-06
-9.27938e-06
-9.22458e-06
-9.16874e-06
-9.11231e-06
-9.05577e-06
-8.99956e-06
-8.94411e-06
-8.88976e-06
-8.83671e-06
-8.78501e-06
-8.73438e-06
-8.68416e-06
-8.63321e-06
-8.57876e-06
-8.51498e-06
-8.39341e-06
-8.15892e-06
-9.9021e-06
-9.87808e-06
-9.84974e-06
-9.81948e-06
-9.78682e-06
-9.75127e-06
-9.71271e-06
-9.67113e-06
-9.6266e-06
-9.57921e-06
-9.52909e-06
-9.47646e-06
-9.42159e-06
-9.36481e-06
-9.30649e-06
-9.24707e-06
-9.18699e-06
-9.12673e-06
-9.06672e-06
-9.00737e-06
-8.94898e-06
-8.89173e-06
-8.83562e-06
-8.78041e-06
-8.72562e-06
-8.67076e-06
-8.61323e-06
-8.5542e-06
-8.45826e-06
-8.70847e-06
-1.00288e-05
-1.00027e-05
-9.97208e-06
-9.93945e-06
-9.90431e-06
-9.86614e-06
-9.82482e-06
-9.78038e-06
-9.73286e-06
-9.68238e-06
-9.62908e-06
-9.57317e-06
-9.51495e-06
-9.45474e-06
-9.39292e-06
-9.32994e-06
-9.26622e-06
-9.20223e-06
-9.13838e-06
-9.07504e-06
-9.01246e-06
-8.95077e-06
-8.88991e-06
-8.82963e-06
-8.76952e-06
-8.70942e-06
-8.64707e-06
-8.5887e-06
-8.50653e-06
-8.81622e-06
-1.01612e-05
-1.0133e-05
-1.00998e-05
-1.00646e-05
-1.00269e-05
-9.98596e-06
-9.9418e-06
-9.8944e-06
-9.84384e-06
-9.79022e-06
-9.73371e-06
-9.67452e-06
-9.61293e-06
-9.5493e-06
-9.484e-06
-9.41746e-06
-9.35009e-06
-9.28233e-06
-9.21455e-06
-9.14707e-06
-9.08008e-06
-9.01362e-06
-8.94756e-06
-8.88154e-06
-8.81506e-06
-8.74803e-06
-8.67803e-06
-8.61203e-06
-8.51613e-06
-8.76483e-06
-1.02995e-05
-1.02689e-05
-1.02331e-05
-1.01952e-05
-1.01546e-05
-1.01108e-05
-1.00637e-05
-1.00133e-05
-9.95963e-06
-9.90283e-06
-9.84306e-06
-9.78057e-06
-9.71562e-06
-9.64857e-06
-9.57978e-06
-9.50965e-06
-9.43859e-06
-9.36697e-06
-9.29514e-06
-9.22332e-06
-9.15163e-06
-9.08001e-06
-9.00818e-06
-8.93563e-06
-8.86178e-06
-8.78619e-06
-8.70612e-06
-8.62767e-06
-8.5128e-06
-8.70644e-06
-1.04438e-05
-1.04105e-05
-1.03718e-05
-1.0331e-05
-1.02876e-05
-1.02408e-05
-1.01906e-05
-1.01371e-05
-1.00802e-05
-1.00202e-05
-9.95717e-06
-9.89135e-06
-9.82303e-06
-9.75253e-06
-9.68022e-06
-9.60646e-06
-9.53163e-06
-9.45604e-06
-9.37997e-06
-9.30356e-06
-9.22681e-06
-9.14953e-06
-9.07129e-06
-8.99146e-06
-8.90915e-06
-8.82362e-06
-8.73168e-06
-8.63826e-06
-8.50488e-06
-8.64927e-06
-1.05938e-05
-1.05578e-05
-1.0516e-05
-1.04722e-05
-1.04257e-05
-1.03758e-05
-1.03225e-05
-1.02657e-05
-1.02057e-05
-1.01423e-05
-1.0076e-05
-1.00068e-05
-9.93509e-06
-9.86111e-06
-9.78523e-06
-9.70777e-06
-9.62905e-06
-9.54933e-06
-9.46879e-06
-9.38746e-06
-9.30522e-06
-9.22173e-06
-9.13639e-06
-9.04843e-06
-8.95661e-06
-8.85986e-06
-8.75487e-06
-8.64519e-06
-8.49392e-06
-8.59139e-06
-1.07494e-05
-1.07105e-05
-1.06654e-05
-1.06184e-05
-1.05688e-05
-1.05157e-05
-1.04591e-05
-1.03991e-05
-1.03357e-05
-1.02691e-05
-1.01994e-05
-1.01268e-05
-1.00517e-05
-9.97417e-06
-9.89464e-06
-9.81337e-06
-9.73061e-06
-9.64654e-06
-9.56123e-06
-9.47461e-06
-9.38639e-06
-9.29606e-06
-9.20293e-06
-9.1059e-06
-9.00358e-06
-8.89462e-06
-8.77547e-06
-8.64894e-06
-8.48042e-06
-8.53316e-06
-1.09104e-05
-1.08683e-05
-1.08199e-05
-1.07696e-05
-1.07166e-05
-1.06603e-05
-1.06004e-05
-1.05371e-05
-1.04703e-05
-1.04003e-05
-1.03272e-05
-1.02512e-05
-1.01726e-05
-1.00915e-05
-1.00082e-05
-9.92298e-06
-9.83599e-06
-9.7473e-06
-9.65687e-06
-9.56449e-06
-9.46972e-06
-9.37194e-06
-9.27019e-06
-9.16323e-06
-9.04945e-06
-8.92739e-06
-8.79334e-06
-8.64961e-06
-8.46452e-06
-8.47514e-06
-1.10762e-05
-1.1031e-05
-1.0979e-05
-1.09253e-05
-1.0869e-05
-1.08092e-05
-1.0746e-05
-1.06793e-05
-1.06091e-05
-1.05358e-05
-1.04592e-05
-1.03797e-05
-1.02975e-05
-1.02127e-05
-1.01256e-05
-1.00362e-05
-9.94477e-06
-9.85113e-06
-9.75517e-06
-9.65653e-06
-9.55462e-06
-9.44864e-06
-9.33744e-06
-9.21963e-06
-9.09359e-06
-8.95754e-06
-8.80806e-06
-8.64701e-06
-8.446e-06
-8.41722e-06
-1.12466e-05
-1.1198e-05
-1.11424e-05
-1.10851e-05
-1.10254e-05
-1.09622e-05
-1.08955e-05
-1.08254e-05
-1.07519e-05
-1.0675e-05
-1.0595e-05
-1.0512e-05
-1.04261e-05
-1.03376e-05
-1.02464e-05
-1.01527e-05
-1.00565e-05
-9.95751e-06
-9.85555e-06
-9.75005e-06
-9.64036e-06
-9.52541e-06
-9.40393e-06
-9.27443e-06
-9.13521e-06
-8.98451e-06
-8.81917e-06
-8.64079e-06
-8.4244e-06
-8.35888e-06
-1.14208e-05
-1.13688e-05
-1.13095e-05
-1.12486e-05
-1.11854e-05
-1.11187e-05
-1.10486e-05
-1.0975e-05
-1.0898e-05
-1.08178e-05
-1.07343e-05
-1.06476e-05
-1.0558e-05
-1.04655e-05
-1.03701e-05
-1.02718e-05
-1.01705e-05
-1.00658e-05
-9.95729e-06
-9.84437e-06
-9.72613e-06
-9.60141e-06
-9.46879e-06
-9.32681e-06
-9.17363e-06
-9.00767e-06
-8.82613e-06
-8.63048e-06
-8.39916e-06
-8.29939e-06
-1.15983e-05
-1.15428e-05
-1.14796e-05
-1.14152e-05
-1.13484e-05
-1.12783e-05
-1.12047e-05
-1.11277e-05
-1.10472e-05
-1.09634e-05
-1.08764e-05
-1.07861e-05
-1.06927e-05
-1.05961e-05
-1.04962e-05
-1.0393e-05
-1.02862e-05
-1.01752e-05
-1.00597e-05
-9.93862e-06
-9.81106e-06
-9.6757e-06
-9.53119e-06
-9.37584e-06
-9.20803e-06
-9.02633e-06
-8.82836e-06
-8.61557e-06
-8.36967e-06
-8.23787e-06
-1.17782e-05
-1.17192e-05
-1.16522e-05
-1.15841e-05
-1.15138e-05
-1.14402e-05
-1.13632e-05
-1.12827e-05
-1.11988e-05
-1.11115e-05
-1.10209e-05
-1.09269e-05
-1.08294e-05
-1.07285e-05
-1.0624e-05
-1.05155e-05
-1.04028e-05
-1.02851e-05
-1.01618e-05
-1.00319e-05
-9.89426e-06
-9.74746e-06
-9.59015e-06
-9.42071e-06
-9.23766e-06
-9.03981e-06
-8.82528e-06
-8.59557e-06
-8.33543e-06
-8.17348e-06
-1.19598e-05
-1.18972e-05
-1.18264e-05
-1.17547e-05
-1.16809e-05
-1.16039e-05
-1.15234e-05
-1.14395e-05
-1.13521e-05
-1.12613e-05
-1.1167e-05
-1.10692e-05
-1.09676e-05
-1.08622e-05
-1.07527e-05
-1.06386e-05
-1.05194e-05
-1.03944e-05
-1.02628e-05
-1.01233e-05
-9.97469e-06
-9.81571e-06
-9.64477e-06
-9.46054e-06
-9.26173e-06
-9.04745e-06
-8.81634e-06
-8.57004e-06
-8.2962e-06
-8.10612e-06
-1.21422e-05
-1.2076e-05
-1.20014e-05
-1.19261e-05
-1.18488e-05
-1.17684e-05
-1.16845e-05
-1.15972e-05
-1.15065e-05
-1.14121e-05
-1.13141e-05
-1.12123e-05
-1.11065e-05
-1.09964e-05
-1.08815e-05
-1.07613e-05
-1.06352e-05
-1.05023e-05
-1.03615e-05
-1.02116e-05
-1.00514e-05
-9.87931e-06
-9.69407e-06
-9.49446e-06
-9.27947e-06
-9.04856e-06
-8.80096e-06
-8.5385e-06
-8.25148e-06
-8.03587e-06
-1.23243e-05
-1.22546e-05
-1.21762e-05
-1.20974e-05
-1.20167e-05
-1.19329e-05
-1.18458e-05
-1.17551e-05
-1.16609e-05
-1.15631e-05
-1.14613e-05
-1.13554e-05
-1.12451e-05
-1.113e-05
-1.10094e-05
-1.08827e-05
-1.07492e-05
-1.06076e-05
-1.0457e-05
-1.0296e-05
-1.01232e-05
-9.93731e-06
-9.7371e-06
-9.52159e-06
-9.2901e-06
-9.04249e-06
-8.77857e-06
-8.5004e-06
-8.20065e-06
-7.96198e-06
-1.2505e-05
-1.24319e-05
-1.23498e-05
-1.22675e-05
-1.21836e-05
-1.20965e-05
-1.20061e-05
-1.19122e-05
-1.18146e-05
-1.17132e-05
-1.16076e-05
-1.14976e-05
-1.13826e-05
-1.12621e-05
-1.11354e-05
-1.10018e-05
-1.08601e-05
-1.07093e-05
-1.05481e-05
-1.03751e-05
-1.01891e-05
-9.98866e-06
-9.7729e-06
-9.54107e-06
-9.29288e-06
-9.02861e-06
-8.74862e-06
-8.45528e-06
-8.14324e-06
-7.88374e-06
-1.26833e-05
-1.26068e-05
-1.25211e-05
-1.24355e-05
-1.23483e-05
-1.22582e-05
-1.21646e-05
-1.20675e-05
-1.19666e-05
-1.18615e-05
-1.17521e-05
-1.16376e-05
-1.15177e-05
-1.13916e-05
-1.12584e-05
-1.11172e-05
-1.09669e-05
-1.08061e-05
-1.06335e-05
-1.04479e-05
-1.02479e-05
-1.00323e-05
-9.80052e-06
-9.55207e-06
-9.28709e-06
-9.0063e-06
-8.71063e-06
-8.40268e-06
-8.07888e-06
-7.80077e-06
-1.28577e-05
-1.2778e-05
-1.26889e-05
-1.26e-05
-1.25098e-05
-1.24167e-05
-1.23201e-05
-1.22198e-05
-1.21156e-05
-1.2007e-05
-1.18935e-05
-1.17746e-05
-1.16494e-05
-1.15173e-05
-1.13772e-05
-1.12279e-05
-1.10682e-05
-1.08968e-05
-1.07122e-05
-1.05132e-05
-1.02985e-05
-1.00673e-05
-9.81903e-06
-9.55378e-06
-9.27204e-06
-8.97502e-06
-8.66411e-06
-8.3422e-06
-8.0072e-06
-7.71257e-06
-1.30271e-05
-1.29442e-05
-1.28518e-05
-1.27599e-05
-1.26669e-05
-1.25708e-05
-1.24713e-05
-1.2368e-05
-1.22605e-05
-1.21483e-05
-1.20307e-05
-1.19071e-05
-1.17765e-05
-1.1638e-05
-1.14905e-05
-1.13325e-05
-1.11629e-05
-1.09801e-05
-1.07828e-05
-1.05697e-05
-1.03398e-05
-1.00924e-05
-9.82754e-06
-9.54544e-06
-9.24712e-06
-8.93422e-06
-8.60862e-06
-8.27343e-06
-7.9278e-06
-7.61824e-06
-1.31899e-05
-1.31041e-05
-1.30086e-05
-1.29139e-05
-1.28181e-05
-1.27194e-05
-1.26171e-05
-1.25108e-05
-1.24001e-05
-1.22842e-05
-1.21624e-05
-1.20339e-05
-1.18976e-05
-1.17523e-05
-1.15968e-05
-1.14297e-05
-1.12495e-05
-1.10547e-05
-1.0844e-05
-1.06162e-05
-1.03707e-05
-1.01069e-05
-9.82521e-06
-9.52632e-06
-9.21171e-06
-8.88343e-06
-8.54379e-06
-8.1961e-06
-7.84057e-06
-7.51787e-06
-1.33448e-05
-1.32562e-05
-1.31579e-05
-1.30605e-05
-1.29622e-05
-1.2861e-05
-1.2756e-05
-1.26469e-05
-1.25329e-05
-1.24133e-05
-1.22873e-05
-1.21536e-05
-1.20113e-05
-1.18589e-05
-1.1695e-05
-1.1518e-05
-1.13266e-05
-1.11192e-05
-1.08946e-05
-1.06517e-05
-1.03901e-05
-1.01097e-05
-9.81121e-06
-9.49576e-06
-9.16528e-06
-8.82223e-06
-8.46928e-06
-8.10997e-06
-7.74549e-06
-7.41131e-06
-1.34901e-05
-1.3399e-05
-1.32981e-05
-1.31983e-05
-1.30977e-05
-1.29941e-05
-1.28867e-05
-1.27748e-05
-1.26576e-05
-1.25343e-05
-1.24038e-05
-1.22649e-05
-1.21162e-05
-1.19562e-05
-1.17834e-05
-1.15961e-05
-1.1393e-05
-1.11724e-05
-1.09333e-05
-1.06749e-05
-1.03971e-05
-1.01e-05
-9.78478e-06
-9.45312e-06
-9.10731e-06
-8.75019e-06
-8.38479e-06
-8.01492e-06
-7.64224e-06
-7.29621e-06
-1.36244e-05
-1.3531e-05
-1.34277e-05
-1.33257e-05
-1.32231e-05
-1.31174e-05
-1.30076e-05
-1.2893e-05
-1.27728e-05
-1.26457e-05
-1.25106e-05
-1.23661e-05
-1.22107e-05
-1.20427e-05
-1.18606e-05
-1.16626e-05
-1.14471e-05
-1.12129e-05
-1.0959e-05
-1.06848e-05
-1.03905e-05
-1.00768e-05
-9.74523e-06
-9.39782e-06
-9.03734e-06
-8.66696e-06
-8.29006e-06
-7.9108e-06
-7.53006e-06
-7.17178e-06
-1.3746e-05
-1.36506e-05
-1.35452e-05
-1.34413e-05
-1.33368e-05
-1.32292e-05
-1.31173e-05
-1.30001e-05
-1.28767e-05
-1.27459e-05
-1.26061e-05
-1.24558e-05
-1.22934e-05
-1.21171e-05
-1.19251e-05
-1.17158e-05
-1.14876e-05
-1.12394e-05
-1.09703e-05
-1.06802e-05
-1.03696e-05
-1.00395e-05
-9.69188e-06
-9.32933e-06
-8.95493e-06
-8.57219e-06
-8.18486e-06
-7.79706e-06
-7.40733e-06
-7.04003e-06
-1.38532e-05
-1.3756e-05
-1.36488e-05
-1.35434e-05
-1.34374e-05
-1.3328e-05
-1.32141e-05
-1.30945e-05
-1.29681e-05
-1.28333e-05
-1.26886e-05
-1.25324e-05
-1.23626e-05
-1.21776e-05
-1.19755e-05
-1.17545e-05
-1.15132e-05
-1.12507e-05
-1.09663e-05
-1.06602e-05
-1.03333e-05
-9.98718e-06
-9.62414e-06
-9.24717e-06
-8.85972e-06
-8.46561e-06
-8.06894e-06
-7.67287e-06
-7.27522e-06
-6.90124e-06
-1.39444e-05
-1.38458e-05
-1.37372e-05
-1.36304e-05
-1.35231e-05
-1.34122e-05
-1.32965e-05
-1.31746e-05
-1.30451e-05
-1.29064e-05
-1.27567e-05
-1.25942e-05
-1.24169e-05
-1.22229e-05
-1.20102e-05
-1.17772e-05
-1.15225e-05
-1.12455e-05
-1.09457e-05
-1.06238e-05
-1.0281e-05
-9.91929e-06
-9.54148e-06
-9.1509e-06
-8.75136e-06
-8.34699e-06
-7.94195e-06
-7.53731e-06
-7.13463e-06
-6.75456e-06
-1.40179e-05
-1.39182e-05
-1.38084e-05
-1.37007e-05
-1.35923e-05
-1.34803e-05
-1.33628e-05
-1.32387e-05
-1.31062e-05
-1.29635e-05
-1.28088e-05
-1.26399e-05
-1.24548e-05
-1.22514e-05
-1.20278e-05
-1.17825e-05
-1.15144e-05
-1.12227e-05
-1.09077e-05
-1.05702e-05
-1.02119e-05
-9.83519e-06
-9.44339e-06
-9.04015e-06
-8.62957e-06
-8.2161e-06
-7.8032e-06
-7.39056e-06
-6.98523e-06
-6.59969e-06
-1.40721e-05
-1.39715e-05
-1.3861e-05
-1.37527e-05
-1.36436e-05
-1.35305e-05
-1.34116e-05
-1.32853e-05
-1.31498e-05
-1.30031e-05
-1.28432e-05
-1.26677e-05
-1.24745e-05
-1.22616e-05
-1.2027e-05
-1.17693e-05
-1.14875e-05
-1.11813e-05
-1.08512e-05
-1.04985e-05
-1.01252e-05
-9.73436e-06
-9.32946e-06
-8.91458e-06
-8.49412e-06
-8.07259e-06
-7.65173e-06
-7.23377e-06
-6.8267e-06
-6.43602e-06
-1.41052e-05
-1.40042e-05
-1.38934e-05
-1.37847e-05
-1.36751e-05
-1.35613e-05
-1.34411e-05
-1.33128e-05
-1.31744e-05
-1.30237e-05
-1.28584e-05
-1.26762e-05
-1.24748e-05
-1.22521e-05
-1.20064e-05
-1.17362e-05
-1.14408e-05
-1.11203e-05
-1.07755e-05
-1.0408e-05
-1.00205e-05
-9.61631e-06
-9.19932e-06
-8.77392e-06
-8.34481e-06
-7.91593e-06
-7.48771e-06
-7.06689e-06
-6.65866e-06
-6.26339e-06
-7.74872e-06
-7.66999e-06
-7.57439e-06
-7.4535e-06
-7.3043e-06
-7.12455e-06
-6.91132e-06
-6.66075e-06
-6.37068e-06
-6.03965e-06
-5.66735e-06
-5.25487e-06
-4.80494e-06
-4.32212e-06
-3.81279e-06
-3.28522e-06
-2.74854e-06
-2.21403e-06
-1.69291e-06
-1.19644e-06
-7.34597e-07
-3.15948e-07
5.21599e-08
3.64817e-07
6.19594e-07
8.16481e-07
9.57717e-07
1.0475e-06
1.09154e-06
1.09665e-06
1.07019e-06
1.01967e-06
9.52306e-07
8.74636e-07
7.92239e-07
7.09527e-07
6.29702e-07
5.54841e-07
4.86088e-07
4.23901e-07
3.68257e-07
3.18863e-07
2.75243e-07
2.36888e-07
2.03216e-07
1.73759e-07
1.47963e-07
1.25514e-07
1.05865e-07
8.89119e-08
7.40131e-08
6.13607e-08
5.00511e-08
4.07449e-08
3.20013e-08
2.52723e-08
1.80999e-08
1.37719e-08
6.33984e-09
7.08834e-09
-7.75972e-06
-7.67948e-06
-7.58445e-06
-7.46399e-06
-7.31535e-06
-7.13584e-06
-6.92293e-06
-6.67281e-06
-6.38316e-06
-6.05249e-06
-5.68045e-06
-5.26812e-06
-4.81823e-06
-4.33532e-06
-3.82577e-06
-3.29788e-06
-2.76064e-06
-2.2256e-06
-1.70382e-06
-1.20663e-06
-7.43996e-07
-3.24537e-07
4.44052e-08
3.5789e-07
6.13483e-07
8.11161e-07
9.53148e-07
1.04363e-06
1.08833e-06
1.09403e-06
1.06809e-06
1.01802e-06
9.51037e-07
8.73671e-07
7.91524e-07
7.09e-07
6.29317e-07
5.54562e-07
4.85882e-07
4.23751e-07
3.68151e-07
3.18788e-07
2.75182e-07
2.36841e-07
2.03176e-07
1.73732e-07
1.47941e-07
1.25492e-07
1.05854e-07
8.89009e-08
7.40001e-08
6.13503e-08
5.00456e-08
4.0743e-08
3.19958e-08
2.52642e-08
1.80975e-08
1.37752e-08
6.34572e-09
7.08812e-09
-7.78135e-06
-7.69807e-06
-7.6042e-06
-7.48445e-06
-7.33701e-06
-7.15821e-06
-6.94598e-06
-6.69669e-06
-6.40783e-06
-6.07784e-06
-5.70632e-06
-5.29431e-06
-4.8445e-06
-4.36143e-06
-3.85147e-06
-3.32297e-06
-2.78464e-06
-2.24857e-06
-1.72551e-06
-1.22688e-06
-7.62705e-07
-3.41633e-07
2.89455e-08
3.44078e-07
6.01292e-07
8.00538e-07
9.44022e-07
1.03592e-06
1.08191e-06
1.08879e-06
1.06389e-06
1.01472e-06
9.48496e-07
8.71745e-07
7.90088e-07
7.07942e-07
6.28545e-07
5.54002e-07
4.8548e-07
4.2346e-07
3.67938e-07
3.18631e-07
2.75066e-07
2.36753e-07
2.03109e-07
1.73678e-07
1.47898e-07
1.25458e-07
1.05825e-07
8.88771e-08
7.3981e-08
6.13337e-08
5.00322e-08
4.07307e-08
3.19871e-08
2.52569e-08
1.80926e-08
1.37688e-08
6.34493e-09
7.08049e-09
-7.81282e-06
-7.72496e-06
-7.6329e-06
-7.51419e-06
-7.36831e-06
-7.19086e-06
-6.97981e-06
-6.73173e-06
-6.44404e-06
-6.11506e-06
-5.74432e-06
-5.33281e-06
-4.88316e-06
-4.39989e-06
-3.88936e-06
-3.35977e-06
-2.82031e-06
-2.28256e-06
-1.75763e-06
-1.25691e-06
-7.90464e-07
-3.67024e-07
5.96678e-09
3.23529e-07
5.8314e-07
7.8471e-07
9.30415e-07
1.0244e-06
1.07233e-06
1.08095e-06
1.05762e-06
1.00979e-06
9.44691e-07
8.68862e-07
7.87937e-07
7.06357e-07
6.2739e-07
5.53165e-07
4.84876e-07
4.23024e-07
3.6762e-07
3.18397e-07
2.74892e-07
2.36621e-07
2.03007e-07
1.73597e-07
1.47833e-07
1.25407e-07
1.05782e-07
8.88414e-08
7.39519e-08
6.13088e-08
5.00119e-08
4.07127e-08
3.1974e-08
2.52456e-08
1.80853e-08
1.37597e-08
6.34419e-09
7.06932e-09
-7.85287e-06
-7.75898e-06
-7.66949e-06
-7.55218e-06
-7.40823e-06
-7.23269e-06
-7.02338e-06
-6.77697e-06
-6.49085e-06
-6.16325e-06
-5.79361e-06
-5.38282e-06
-4.93344e-06
-4.44998e-06
-3.93877e-06
-3.40789e-06
-2.8669e-06
-2.32708e-06
-1.79973e-06
-1.29632e-06
-8.26946e-07
-4.00431e-07
-2.42963e-08
2.9644e-07
5.59188e-07
7.63807e-07
9.12429e-07
1.00916e-06
1.05964e-06
1.07057e-06
1.04929e-06
1.00324e-06
9.39638e-07
8.65031e-07
7.85077e-07
7.04248e-07
6.25851e-07
5.5205e-07
4.84071e-07
4.22442e-07
3.67196e-07
3.18085e-07
2.7466e-07
2.36445e-07
2.02871e-07
1.7349e-07
1.47748e-07
1.25337e-07
1.05725e-07
8.87938e-08
7.3913e-08
6.12754e-08
4.99849e-08
4.06888e-08
3.19563e-08
2.52303e-08
1.80757e-08
1.37477e-08
6.34348e-09
7.05461e-09
-7.90001e-06
-7.79872e-06
-7.71266e-06
-7.59711e-06
-7.4555e-06
-7.28236e-06
-7.07535e-06
-6.83114e-06
-6.54706e-06
-6.22126e-06
-5.85307e-06
-5.44328e-06
-4.99437e-06
-4.51081e-06
-3.99886e-06
-3.46661e-06
-2.92377e-06
-2.38153e-06
-1.85132e-06
-1.34467e-06
-8.7176e-07
-4.41522e-07
-6.15618e-08
2.63048e-07
5.29634e-07
7.3799e-07
8.90194e-07
9.90302e-07
1.04391e-06
1.0577e-06
1.03896e-06
9.95107e-07
9.33354e-07
8.60262e-07
7.81514e-07
7.0162e-07
6.23934e-07
5.5066e-07
4.83068e-07
4.21716e-07
3.66667e-07
3.17695e-07
2.7437e-07
2.36224e-07
2.02701e-07
1.73356e-07
1.4764e-07
1.25251e-07
1.05654e-07
8.87344e-08
7.38643e-08
6.12338e-08
4.99511e-08
4.06592e-08
3.19341e-08
2.52112e-08
1.80636e-08
1.3733e-08
6.34279e-09
7.03633e-09
-7.95285e-06
-7.84251e-06
-7.76089e-06
-7.64746e-06
-7.50863e-06
-7.33839e-06
-7.13424e-06
-6.89277e-06
-6.61124e-06
-6.28772e-06
-5.92141e-06
-5.51298e-06
-5.06481e-06
-4.58132e-06
-4.06864e-06
-3.53503e-06
-2.99015e-06
-2.44522e-06
-1.91178e-06
-1.40142e-06
-9.24453e-07
-4.89912e-07
-1.05503e-07
2.23627e-07
4.94706e-07
7.07446e-07
8.63861e-07
9.67945e-07
1.02525e-06
1.04241e-06
1.02666e-06
9.85415e-07
9.2586e-07
8.5457e-07
7.77258e-07
6.98479e-07
6.2164e-07
5.48996e-07
4.81866e-07
4.20846e-07
3.66033e-07
3.17228e-07
2.74022e-07
2.3596e-07
2.02497e-07
1.73195e-07
1.47512e-07
1.25147e-07
1.05568e-07
8.86633e-08
7.38057e-08
6.11838e-08
4.99104e-08
4.06237e-08
3.19074e-08
2.5188e-08
1.80492e-08
1.37153e-08
6.34211e-09
7.01449e-09
-8.01026e-06
-7.88847e-06
-7.81259e-06
-7.70158e-06
-7.56602e-06
-7.39916e-06
-7.19842e-06
-6.96026e-06
-6.68184e-06
-6.36112e-06
-5.99719e-06
-5.59056e-06
-5.14345e-06
-4.66023e-06
-4.1471e-06
-3.61215e-06
-3.06516e-06
-2.51737e-06
-1.98042e-06
-1.466e-06
-9.84517e-07
-5.4517e-07
-1.55753e-07
1.78485e-07
4.54659e-07
6.72384e-07
8.33597e-07
9.42221e-07
1.00375e-06
1.02477e-06
1.01246e-06
9.74205e-07
9.1718e-07
8.4797e-07
7.72318e-07
6.9483e-07
6.18973e-07
5.47061e-07
4.80467e-07
4.19833e-07
3.65295e-07
3.16685e-07
2.73616e-07
2.35652e-07
2.02259e-07
1.73007e-07
1.47362e-07
1.25026e-07
1.05468e-07
8.85803e-08
7.37373e-08
6.11255e-08
4.9863e-08
4.05824e-08
3.18762e-08
2.5161e-08
1.80324e-08
1.36948e-08
6.34144e-09
6.98907e-09
-8.0721e-06