/*--------------------------------*- C++ -*----------------------------------*\
| =========                 |                                                 |
| \\      /  F ield         | foam-extend: Open Source CFD                    |
|  \\    /   O peration     | Version:     4.0                                |
|   \\  /    A nd           | Web:         http://www.foam-extend.org         |
|    \\/     M anipulation  |                                                 |
\*---------------------------------------------------------------------------*/
FoamFile
{
    version     2.0;
    format      ascii;
    class       surfaceScalarField;
    location    "75";
    object      phi;
}
// * * * * * * * * * * * * * * * * * * * * * * * * * * * * * * * * * * * * * //

dimensions      [0 3 -1 0 0 0 0];

internalField   nonuniform List<scalar> 
71520
(
-1.70202e-10
1.69546e-10
6.56276e-13
-6.86767e-10
5.14497e-10
2.0671e-12
-1.57675e-09
8.86305e-10
3.67303e-12
-2.8677e-09
1.28546e-09
5.49305e-12
-4.58758e-09
1.71233e-09
7.54728e-12
-6.76457e-09
2.16713e-09
9.85669e-12
-9.42701e-09
2.65e-09
1.24433e-11
-1.26033e-08
3.16095e-09
1.53298e-11
-1.63217e-08
3.69988e-09
1.85396e-11
-2.06104e-08
4.26657e-09
2.20962e-11
-2.54971e-08
4.86066e-09
2.60239e-11
-3.10091e-08
5.48167e-09
3.03464e-11
-3.71731e-08
6.12896e-09
3.50876e-11
-4.40151e-08
6.80169e-09
4.02712e-11
-5.15598e-08
7.49882e-09
4.59203e-11
-5.98309e-08
8.21899e-09
5.20575e-11
-6.88501e-08
8.96052e-09
5.87046e-11
-7.86373e-08
9.72128e-09
6.58837e-11
-8.92093e-08
1.04985e-08
7.36161e-11
-1.0058e-07
1.12884e-08
8.19222e-11
-1.12757e-07
1.20861e-08
9.08208e-11
-1.25742e-07
1.28853e-08
1.00328e-10
-1.3953e-07
1.36773e-08
1.10455e-10
-1.54102e-07
1.44504e-08
1.21203e-10
-1.69424e-07
1.51895e-08
1.32558e-10
-1.85443e-07
1.58749e-08
1.44487e-10
-2.02081e-07
1.64811e-08
1.56924e-10
-2.19226e-07
1.69748e-08
1.69764e-10
-2.36716e-07
1.73078e-08
1.82838e-10
1.74156e-08
-2.54328e-07
1.95899e-10
-1.67893e-10
3.37438e-10
-6.7755e-10
1.02415e-09
-1.55576e-09
1.76451e-09
-2.82979e-09
2.5595e-09
-4.52729e-09
3.40983e-09
-6.67613e-09
4.31597e-09
-9.30426e-09
5.27814e-09
-1.24397e-08
6.29637e-09
-1.61102e-08
7.37042e-09
-2.03435e-08
8.49981e-09
-2.51666e-08
9.68377e-09
-3.06062e-08
1.09213e-08
-3.66881e-08
1.22109e-08
-4.34373e-08
1.35509e-08
-5.08775e-08
1.4939e-08
-5.90309e-08
1.63724e-08
-6.79179e-08
1.78475e-08
-7.75564e-08
1.93598e-08
-8.79613e-08
2.09034e-08
-9.91435e-08
2.24705e-08
-1.11109e-07
2.40512e-08
-1.23855e-07
2.56321e-08
-1.37373e-07
2.71952e-08
-1.5164e-07
2.87169e-08
-1.66617e-07
3.01663e-08
-1.82245e-07
3.15032e-08
-1.9844e-07
3.2676e-08
-2.15082e-07
3.36169e-08
-2.32004e-07
3.42301e-08
3.43851e-08
-2.48974e-07
-1.63334e-10
5.00771e-10
-6.59345e-10
1.52016e-09
-1.51428e-09
2.61945e-09
-2.75485e-09
3.80008e-09
-4.4081e-09
5.06307e-09
-6.50121e-09
6.40908e-09
-9.06144e-09
7.83837e-09
-1.2116e-08
9.35088e-09
-1.56917e-08
1.09461e-08
-1.98151e-08
1.26233e-08
-2.45123e-08
1.43809e-08
-2.98083e-08
1.62173e-08
-3.57274e-08
1.813e-08
-4.22927e-08
2.01161e-08
-4.95255e-08
2.21719e-08
-5.74456e-08
2.42925e-08
-6.60703e-08
2.64722e-08
-7.5414e-08
2.87034e-08
-8.54874e-08
3.09768e-08
-9.62966e-08
3.32797e-08
-1.07842e-07
3.55962e-08
-1.20115e-07
3.79051e-08
-1.33098e-07
4.01783e-08
-1.4676e-07
4.2379e-08
-1.61053e-07
4.44594e-08
-1.75907e-07
4.63575e-08
-1.91225e-07
4.7994e-08
-2.06874e-07
4.92655e-08
-2.22672e-07
5.00287e-08
5.00846e-08
-2.38372e-07
-1.56648e-10
6.5742e-10
-6.32633e-10
1.99615e-09
-1.4534e-09
3.44021e-09
-2.6448e-09
4.99148e-09
-4.23297e-09
6.65124e-09
-6.24411e-09
8.42022e-09
-8.70439e-09
1.02987e-08
-1.16398e-08
1.22862e-08
-1.50758e-08
1.43821e-08
-1.90373e-08
1.65848e-08
-2.35487e-08
1.88922e-08
-2.86329e-08
2.13015e-08
-3.43117e-08
2.38089e-08
-4.06054e-08
2.64098e-08
-4.75321e-08
2.90986e-08
-5.51076e-08
3.18681e-08
-6.33449e-08
3.47094e-08
-7.2253e-08
3.76116e-08
-8.18367e-08
4.05605e-08
-9.20951e-08
4.35381e-08
-1.0302e-07
4.6521e-08
-1.14594e-07
4.9479e-08
-1.26788e-07
5.23724e-08
-1.39559e-07
5.51499e-08
-1.52844e-07
5.77447e-08
-1.66558e-07
6.00716e-08
-1.80586e-07
6.20216e-08
-1.94774e-07
6.34537e-08
-2.08922e-07
6.41768e-08
6.39163e-08
-2.22754e-07
-1.48014e-10
8.05434e-10
-5.98111e-10
2.44625e-09
-1.37466e-09
4.21677e-09
-2.50241e-09
6.11922e-09
-4.00624e-09
8.15507e-09
-5.91107e-09
1.0325e-08
-8.24162e-09
1.26292e-08
-1.10222e-08
1.50668e-08
-1.42766e-08
1.76365e-08
-1.80277e-08
2.03359e-08
-2.22972e-08
2.31617e-08
-2.71055e-08
2.61098e-08
-3.24712e-08
2.91746e-08
-3.84108e-08
3.23495e-08
-4.49383e-08
3.56261e-08
-5.20644e-08
3.89942e-08
-5.97963e-08
4.24413e-08
-6.81363e-08
4.59516e-08
-7.70813e-08
4.95055e-08
-8.66212e-08
5.30779e-08
-9.67372e-08
5.6637e-08
-1.074e-07
6.01416e-08
-1.18566e-07
6.35388e-08
-1.30177e-07
6.67604e-08
-1.42151e-07
6.97191e-08
-1.54383e-07
7.23037e-08
-1.66735e-07
7.43738e-08
-1.79031e-07
7.5749e-08
-1.91043e-07
7.61892e-08
7.53272e-08
-2.02454e-07
-1.37656e-10
9.43091e-10
-5.56659e-10
2.86525e-09
-1.28006e-09
4.94017e-09
-2.33118e-09
7.17034e-09
-3.73342e-09
9.55731e-09
-5.51004e-09
1.21017e-08
-7.68398e-09
1.48031e-08
-1.02776e-08
1.76604e-08
-1.33123e-08
2.06712e-08
-1.68084e-08
2.38321e-08
-2.07849e-08
2.71382e-08
-2.52587e-08
3.05836e-08
-3.02445e-08
3.41604e-08
-3.57544e-08
3.78593e-08
-4.1797e-08
4.16687e-08
-4.83772e-08
4.55743e-08
-5.54948e-08
4.9559e-08
-6.31444e-08
5.36012e-08
-7.13132e-08
5.76743e-08
-7.99802e-08
6.17449e-08
-8.9114e-08
6.57708e-08
-9.86705e-08
6.96981e-08
-1.0859e-07
7.34583e-08
-1.18794e-07
7.69644e-08
-1.29181e-07
8.01057e-08
-1.3962e-07
8.27427e-08
-1.49946e-07
8.47004e-08
-1.59955e-07
8.57575e-08
-1.69399e-07
8.56337e-08
8.38277e-08
-1.779e-07
-1.25839e-10
1.06893e-09
-5.09315e-10
3.24872e-09
-1.1719e-09
5.60275e-09
-2.13526e-09
8.13369e-09
-3.42097e-09
1.0843e-08
-5.05037e-09
1.37311e-08
-7.04424e-09
1.6797e-08
-9.42254e-09
2.00387e-08
-1.22041e-08
2.34528e-08
-1.54062e-08
2.70342e-08
-1.90442e-08
3.07763e-08
-2.31313e-08
3.46706e-08
-2.76776e-08
3.87067e-08
-3.26899e-08
4.28716e-08
-3.81708e-08
4.71496e-08
-4.41182e-08
5.15217e-08
-5.0524e-08
5.59647e-08
-5.73731e-08
6.04502e-08
-6.4642e-08
6.49433e-08
-7.22973e-08
6.94002e-08
-8.02931e-08
7.37666e-08
-8.85688e-08
7.79738e-08
-9.70459e-08
8.19354e-08
-1.05624e-07
8.55429e-08
-1.14178e-07
8.86593e-08
-1.22549e-07
9.11139e-08
-1.30543e-07
9.26939e-08
-1.37919e-07
9.31338e-08
-1.44418e-07
9.21325e-08
8.89926e-08
-1.49583e-07
-1.12856e-10
1.18179e-09
-4.57227e-10
3.59309e-09
-1.05278e-09
6.19831e-09
-1.91924e-09
9.00015e-09
-3.07612e-09
1.19999e-08
-4.54249e-09
1.51974e-08
-6.33668e-09
1.85912e-08
-8.47589e-09
2.21779e-08
-1.09759e-08
2.59528e-08
-1.38505e-08
2.99088e-08
-1.71113e-08
3.4037e-08
-2.07667e-08
3.83261e-08
-2.4822e-08
4.2762e-08
-2.92779e-08
4.73275e-08
-3.41303e-08
5.2002e-08
-3.93692e-08
5.67607e-08
-4.49776e-08
6.15731e-08
-5.09301e-08
6.64027e-08
-5.71911e-08
7.12043e-08
-6.37133e-08
7.59225e-08
-7.04353e-08
8.04885e-08
-7.72782e-08
8.48167e-08
-8.41432e-08
8.88004e-08
-9.0907e-08
9.23067e-08
-9.74169e-08
9.51692e-08
-1.03486e-07
9.71831e-08
-1.08888e-07
9.80954e-08
-1.13346e-07
9.75926e-08
-1.16577e-07
9.5363e-08
9.04565e-08
-1.18041e-07
-9.90191e-11
1.28081e-09
-4.01622e-10
3.8957e-09
-9.25442e-10
6.72213e-09
-1.68802e-09
9.76273e-09
-2.70655e-09
1.30184e-08
-3.99755e-09
1.64884e-08
-5.57655e-09
2.01702e-08
-7.45769e-09
2.40591e-08
-9.65327e-09
2.81484e-08
-1.21733e-08
3.24288e-08
-1.50249e-08
3.68886e-08
-1.82117e-08
4.15129e-08
-2.1733e-08
4.62833e-08
-2.55834e-08
5.11779e-08
-2.97513e-08
5.61699e-08
-3.42181e-08
6.12275e-08
-3.89571e-08
6.63121e-08
-4.39316e-08
7.13771e-08
-4.90932e-08
7.63659e-08
-5.43799e-08
8.12092e-08
-5.97134e-08
8.5822e-08
-6.49958e-08
9.00992e-08
-7.01068e-08
9.39114e-08
-7.48988e-08
9.70987e-08
-7.91921e-08
9.94625e-08
-8.27685e-08
1.0076e-07
-8.53676e-08
1.00695e-07
-8.66798e-08
9.89048e-08
-8.63926e-08
9.50757e-08
8.79151e-08
-8.38512e-08
-8.46464e-11
1.36545e-09
-3.43751e-10
4.1548e-09
-7.92708e-10
7.17108e-09
-1.44666e-09
1.04167e-08
-2.32019e-09
1.3892e-08
-3.42701e-09
1.75953e-08
-4.77957e-09
2.15227e-08
-6.3886e-09
2.56681e-08
-8.26262e-09
3.00224e-08
-1.04074e-08
3.45736e-08
-1.28253e-08
3.93065e-08
-1.55144e-08
4.42021e-08
-1.84682e-08
4.92371e-08
-2.16741e-08
5.43838e-08
-2.51127e-08
5.96085e-08
-2.87563e-08
6.48711e-08
-3.25678e-08
7.01235e-08
-3.64985e-08
7.53078e-08
-4.04865e-08
8.0354e-08
-4.44546e-08
8.51773e-08
-4.83068e-08
8.96742e-08
-5.1926e-08
9.37184e-08
-5.51697e-08
9.71551e-08
-5.78656e-08
9.97946e-08
-5.98073e-08
1.01404e-07
-6.07457e-08
1.01698e-07
-6.03806e-08
1.00329e-07
-5.83572e-08
9.68814e-08
-5.43815e-08
9.11e-08
8.11852e-08
-4.76515e-08
-7.00514e-11
1.4355e-09
-2.84851e-10
4.3696e-09
-6.57362e-10
7.5436e-09
-1.20011e-09
1.09594e-08
-1.92485e-09
1.46167e-08
-2.84224e-09
1.85126e-08
-3.96133e-09
2.26418e-08
-5.28919e-09
2.6996e-08
-6.83022e-09
3.15634e-08
-8.58559e-09
3.6329e-08
-1.05525e-08
4.12734e-08
-1.27235e-08
4.6373e-08
-1.50852e-08
5.15989e-08
-1.76179e-08
5.69165e-08
-2.02937e-08
6.22843e-08
-2.30756e-08
6.7653e-08
-2.59152e-08
7.29632e-08
-2.87518e-08
7.81444e-08
-3.15095e-08
8.31117e-08
-3.40951e-08
8.77628e-08
-3.63953e-08
9.19744e-08
-3.82732e-08
9.55963e-08
-3.95648e-08
9.84466e-08
-4.00731e-08
1.00303e-07
-3.95635e-08
1.00895e-07
-3.77585e-08
9.98929e-08
-3.43263e-08
9.68973e-08
-2.88245e-08
9.13795e-08
-2.09152e-08
8.31907e-08
7.06465e-08
-1.03765e-08
-5.55304e-11
1.49103e-09
-2.2609e-10
4.54016e-09
-5.22045e-10
7.83955e-09
-9.53113e-10
1.13905e-08
-1.52802e-09
1.51916e-08
-2.2541e-09
1.92387e-08
-3.13681e-09
2.35245e-08
-4.17921e-09
2.80384e-08
-5.38135e-09
3.27656e-08
-6.7395e-09
3.76871e-08
-8.24541e-09
4.27793e-08
-9.88546e-09
4.8013e-08
-1.16397e-08
5.33531e-08
-1.34804e-08
5.87572e-08
-1.53712e-08
6.41751e-08
-1.72649e-08
6.95466e-08
-1.91021e-08
7.48004e-08
-2.08091e-08
7.98514e-08
-2.22963e-08
8.45989e-08
-2.34547e-08
8.89211e-08
-2.41535e-08
9.26732e-08
-2.42363e-08
9.56792e-08
-2.35166e-08
9.77269e-08
-2.1773e-08
9.85593e-08
-1.8744e-08
9.78655e-08
-1.41224e-08
9.52714e-08
-7.5621e-09
9.0337e-08
1.25541e-09
8.2562e-08
1.34285e-08
7.10177e-08
5.56693e-08
2.84056e-08
-4.13497e-11
1.53238e-09
-1.68528e-10
4.66733e-09
-3.89157e-10
8.06018e-09
-7.09989e-10
1.17113e-08
-1.13653e-09
1.56181e-08
-1.67258e-09
1.97748e-08
-2.31977e-09
2.41717e-08
-3.07692e-09
2.87955e-08
-3.93944e-09
3.36281e-08
-4.89846e-09
3.86462e-08
-5.93999e-09
4.38209e-08
-7.04413e-09
4.91172e-08
-8.18377e-09
5.44927e-08
-9.32325e-09
5.98967e-08
-1.04169e-08
6.52687e-08
-1.14073e-08
7.0537e-08
-1.22237e-08
7.56169e-08
-1.27801e-08
8.04078e-08
-1.29726e-08
8.47914e-08
-1.26767e-08
8.86252e-08
-1.17439e-08
9.17403e-08
-9.99783e-09
9.39332e-08
-7.23045e-09
9.49595e-08
-3.19658e-09
9.45255e-08
2.39138e-09
9.22775e-08
9.86916e-09
8.77936e-08
1.96324e-08
8.05738e-08
3.21815e-08
7.00129e-08
4.79035e-08
5.52957e-08
3.59717e-08
6.76011e-08
-2.7734e-11
1.56012e-09
-1.13064e-10
4.75266e-09
-2.60757e-10
8.20787e-09
-4.74467e-10
1.1925e-08
-7.56318e-10
1.59e-08
-1.10643e-09
2.01249e-08
-1.52236e-09
2.45877e-08
-1.99848e-09
2.92716e-08
-2.52529e-09
3.41549e-08
-3.0886e-09
3.92095e-08
-3.66851e-09
4.44008e-08
-4.23861e-09
4.96873e-08
-4.76427e-09
5.50184e-08
-5.20132e-09
6.03338e-08
-5.49474e-09
6.55621e-08
-5.57699e-09
7.06193e-08
-5.36608e-09
7.5406e-08
-4.76349e-09
7.98052e-08
-3.65111e-09
8.3679e-08
-1.88881e-09
8.68629e-08
6.89531e-10
8.9162e-08
4.27934e-09
9.03434e-08
9.10984e-09
9.0129e-08
1.54491e-08
8.81862e-08
2.36098e-08
8.41168e-08
3.39564e-08
7.7447e-08
4.69156e-08
6.76146e-08
6.29815e-08
5.3947e-08
8.26521e-08
3.5625e-08
1.18877e-08
1.06736e-07
-1.48629e-11
1.57498e-09
-6.04291e-11
4.79823e-09
-1.38521e-10
8.28597e-09
-2.49579e-10
1.20361e-08
-3.92228e-10
1.60426e-08
-5.62771e-10
2.02954e-08
-7.54574e-10
2.47795e-08
-9.57351e-10
2.94744e-08
-1.15639e-09
3.43539e-08
-1.33202e-09
3.93851e-08
-1.45855e-09
4.45273e-08
-1.50216e-09
4.97309e-08
-1.42026e-09
5.49365e-08
-1.16035e-09
6.00739e-08
-6.58364e-10
6.50601e-08
1.63296e-10
6.97976e-08
1.39785e-09
7.41714e-08
3.15664e-09
7.80464e-08
5.57201e-09
8.12636e-08
8.79984e-09
8.36351e-08
1.30232e-08
8.49386e-08
1.84562e-08
8.49104e-08
2.53484e-08
8.32368e-08
3.39899e-08
7.95447e-08
4.47172e-08
7.33896e-08
5.79202e-08
6.42439e-08
7.40505e-08
5.14844e-08
9.36267e-08
3.43708e-08
1.17213e-07
1.20391e-08
-1.6505e-08
1.45605e-07
-2.90071e-12
1.57788e-09
-1.12671e-11
4.80659e-09
-2.38887e-11
8.29859e-09
-3.78803e-11
1.20501e-08
-4.82342e-11
1.6053e-08
-4.72845e-11
2.02945e-08
-2.4082e-11
2.47563e-08
3.63264e-11
2.9414e-08
1.53757e-10
3.42365e-08
3.53988e-10
3.91849e-08
6.69612e-10
4.42117e-08
1.14131e-09
4.92592e-08
1.81896e-09
5.42588e-08
2.76341e-09
5.91294e-08
4.04816e-09
6.37754e-08
5.76131e-09
6.80845e-08
8.0078e-09
7.1925e-08
1.09118e-08
7.51425e-08
1.46194e-08
7.7556e-08
1.93019e-08
7.89526e-08
2.51591e-08
7.90814e-08
3.24233e-08
7.76462e-08
4.13637e-08
7.42965e-08
5.22913e-08
6.8617e-08
6.55652e-08
6.01157e-08
8.15989e-08
4.82103e-08
1.00868e-07
3.22151e-08
1.2392e-07
1.13192e-08
1.51357e-07
-1.53985e-08
-4.9135e-08
1.83987e-07
8.00699e-12
1.56988e-09
3.38819e-11
4.78072e-09
8.19431e-11
8.25053e-09
1.58486e-10
1.19735e-08
2.7226e-10
1.59392e-08
4.35036e-10
2.01317e-08
6.62269e-10
2.4529e-08
9.73869e-10
2.91024e-08
1.39508e-09
3.38153e-08
1.95752e-09
3.86224e-08
2.70039e-09
4.34688e-08
3.67137e-09
4.82882e-08
4.92825e-09
5.30019e-08
6.54057e-09
5.75171e-08
8.59135e-09
6.17246e-08
1.11793e-08
6.54965e-08
1.44209e-08
6.86833e-08
1.8453e-08
7.11104e-08
2.34356e-08
7.25733e-08
2.95552e-08
7.2833e-08
3.7028e-08
7.16086e-08
4.6104e-08
6.85702e-08
5.70715e-08
6.33291e-08
7.02616e-08
5.54269e-08
8.60545e-08
4.43228e-08
1.04886e-07
2.93789e-08
1.27254e-07
9.84651e-09
1.53731e-07
-1.51574e-08
1.84952e-07
-4.66195e-08
-8.59222e-08
2.21739e-07
1.78497e-11
1.55203e-09
7.4925e-11
4.72364e-09
1.78703e-10
8.14675e-09
3.38953e-10
1.18133e-08
5.6825e-10
1.57099e-08
8.82567e-10
1.98174e-08
1.30198e-09
2.41096e-08
1.85146e-09
2.85529e-08
2.56183e-09
3.31049e-08
3.47074e-09
3.77135e-08
4.62395e-09
4.23156e-08
6.07647e-09
4.68357e-08
7.89411e-09
5.11843e-08
1.01552e-08
5.5256e-08
1.29525e-08
5.89273e-08
1.63954e-08
6.20536e-08
2.0612e-08
6.44668e-08
2.57517e-08
6.59706e-08
3.19886e-08
6.63364e-08
3.95241e-08
6.52975e-08
4.85907e-08
6.2542e-08
5.94559e-08
5.7705e-08
7.24263e-08
5.03587e-08
8.78525e-08
4.00006e-08
1.06135e-07
2.60405e-08
1.27729e-07
7.78453e-09
1.53154e-07
-1.55785e-08
1.83001e-07
-4.50042e-08
2.17935e-07
-8.15539e-08
-1.26786e-07
2.58799e-07
2.66437e-11
1.52538e-09
1.11909e-10
4.63838e-09
2.66459e-10
7.9922e-09
5.0359e-10
1.15762e-08
8.39762e-10
1.53738e-08
1.29523e-09
1.93619e-08
1.89477e-09
2.35101e-08
2.66855e-09
2.77791e-08
3.65302e-09
3.21204e-08
4.89206e-09
3.64745e-08
6.43816e-09
4.07695e-08
8.35378e-09
4.49201e-08
1.07129e-08
4.88252e-08
1.36029e-08
5.2366e-08
1.71264e-08
5.54038e-08
2.14033e-08
5.77767e-08
2.65737e-08
5.92965e-08
3.27998e-08
5.97445e-08
4.02695e-08
5.88667e-08
4.91994e-08
5.63676e-08
5.98381e-08
5.19033e-08
7.24702e-08
4.50729e-08
8.74206e-08
3.54083e-08
1.05058e-07
2.23628e-08
1.25803e-07
5.29614e-09
1.50127e-07
-1.654e-08
1.78567e-07
-4.40186e-08
2.11733e-07
-7.81695e-08
2.50311e-07
-1.20133e-07
-1.7164e-07
2.95166e-07
3.44452e-11
1.49094e-09
1.45046e-10
4.52777e-09
3.45672e-10
7.79157e-09
6.53178e-10
1.12686e-08
1.08796e-09
1.4939e-08
1.67463e-09
1.87753e-08
2.44275e-09
2.2742e-08
3.42774e-09
2.67942e-08
4.67184e-09
3.08763e-08
6.22525e-09
3.49211e-08
8.1474e-09
3.88474e-08
1.05083e-08
4.25591e-08
1.33904e-08
4.59431e-08
1.68902e-08
4.88663e-08
2.11202e-08
5.11737e-08
2.62115e-08
5.26854e-08
3.23159e-08
5.31921e-08
3.96087e-08
5.24517e-08
4.82918e-08
5.01836e-08
5.85971e-08
4.60624e-08
7.07892e-08
3.97111e-08
8.517e-08
3.06921e-08
1.02082e-07
1.84966e-08
1.21912e-07
2.53275e-09
1.45095e-07
-1.78875e-08
1.72122e-07
-4.35662e-08
2.03541e-07
-7.54382e-08
2.39978e-07
-1.14606e-07
2.82134e-07
-1.62289e-07
-2.20394e-07
3.30887e-07
4.13556e-11
1.44958e-09
1.74723e-10
4.39441e-09
4.17194e-10
7.5491e-09
7.89207e-10
1.08966e-08
1.31514e-09
1.4413e-08
2.02401e-09
1.80664e-08
2.95026e-09
2.18157e-08
4.13465e-09
2.56098e-08
5.62532e-09
2.93857e-08
7.47894e-09
3.30674e-08
9.762e-09
3.65643e-08
1.25524e-08
3.97688e-08
1.5941e-08
4.25545e-08
2.00337e-08
4.47735e-08
2.49534e-08
4.62541e-08
3.08422e-08
4.67966e-08
3.7864e-08
4.61702e-08
4.62076e-08
4.41081e-08
5.60892e-08
4.0302e-08
6.77558e-08
3.43959e-08
8.14884e-08
2.59785e-08
9.76059e-08
1.45746e-08
1.16468e-07
-3.65104e-10
1.38476e-07
-1.94761e-08
1.64083e-07
-4.34937e-08
1.9379e-07
-7.32731e-08
2.28159e-07
-1.09807e-07
2.6782e-07
-1.54267e-07
3.13483e-07
-2.07951e-07
-2.7294e-07
3.66029e-07
4.7514e-11
1.40207e-09
2.01479e-10
4.24044e-09
4.82219e-10
7.26836e-09
9.13781e-10
1.04651e-08
1.52457e-09
1.38023e-08
2.34806e-09
1.72429e-08
3.42364e-09
2.07401e-08
4.79753e-09
2.42359e-08
6.52387e-09
2.76593e-08
8.66592e-09
3.09254e-08
1.12975e-08
3.39328e-08
1.45044e-08
3.65619e-08
1.83864e-08
3.86725e-08
2.30589e-08
4.0101e-08
2.86553e-08
4.06577e-08
3.53292e-08
4.01227e-08
4.32571e-08
3.82423e-08
5.26412e-08
3.4724e-08
6.37122e-08
2.92309e-08
7.67328e-08
2.13752e-08
9.20004e-08
1.07109e-08
1.0985e-07
-3.27497e-09
1.30657e-07
-2.11718e-08
1.54838e-07
-4.36574e-08
1.82858e-07
-7.15138e-08
2.1523e-07
-1.05645e-07
2.52519e-07
-1.47097e-07
2.95356e-07
-1.97104e-07
3.44445e-07
-2.57041e-07
-3.29145e-07
4.0065e-07
5.30902e-11
1.34898e-09
2.25975e-10
4.06756e-09
5.42219e-10
6.95212e-09
1.02951e-09
9.97778e-09
1.7203e-09
1.31115e-08
2.65261e-09
1.63106e-08
3.87083e-09
1.95219e-08
5.42673e-09
2.268e-08
7.3806e-09
2.57055e-08
9.80245e-09
2.85035e-08
1.27735e-08
3.09617e-08
1.6388e-08
3.29475e-08
2.07545e-08
3.4306e-08
2.59983e-08
3.48572e-08
3.22637e-08
3.43923e-08
3.9716e-08
3.26704e-08
4.85446e-08
2.94137e-08
5.89655e-08
2.43031e-08
7.12244e-08
1.6972e-08
8.55994e-08
7.00015e-09
1.02404e-07
-6.0936e-09
1.21988e-07
-2.28593e-08
1.44742e-07
-4.39257e-08
1.71097e-07
-7.00125e-08
2.01528e-07
-1.01944e-07
2.3655e-07
-1.40667e-07
2.76727e-07
-1.87274e-07
3.22677e-07
-2.43054e-07
3.75091e-07
-3.09455e-07
-3.88833e-07
4.34779e-07
5.82762e-11
1.2907e-09
2.48959e-10
3.87687e-09
5.9887e-10
6.60221e-09
1.13935e-09
9.4373e-09
1.90699e-09
1.23438e-08
2.94435e-09
1.52732e-08
4.30094e-09
1.81653e-08
6.03421e-09
2.09467e-08
8.21068e-09
2.3529e-08
1.09073e-08
2.58069e-08
1.42131e-08
2.76559e-08
1.82305e-08
2.89301e-08
2.30774e-08
2.9459e-08
2.88895e-08
2.90451e-08
3.58219e-08
2.74599e-08
4.40523e-08
2.444e-08
5.3783e-08
1.9683e-08
6.52443e-08
1.28418e-08
7.86969e-08
3.51945e-09
9.44342e-08
-8.73707e-09
1.12784e-07
-2.44438e-08
1.34113e-07
-4.41879e-08
1.58824e-07
-6.86367e-08
1.87359e-07
-9.85477e-08
2.20197e-07
-1.34782e-07
2.57851e-07
-1.78321e-07
3.00872e-07
-2.30295e-07
3.4985e-07
-2.92032e-07
4.05453e-07
-3.65058e-07
-4.51766e-07
4.68385e-07
6.32769e-11
1.22742e-09
2.71233e-10
3.66892e-09
6.53963e-10
6.21948e-09
1.24651e-09
8.84475e-09
2.0896e-09
1.15007e-08
3.23047e-09
1.41324e-08
4.72381e-09
1.6672e-08
6.63283e-09
1.90377e-08
9.03047e-09
2.11314e-08
1.20008e-08
2.28365e-08
1.56407e-08
2.40161e-08
2.00613e-08
2.45095e-08
2.539e-08
2.41302e-08
3.17729e-08
2.26622e-08
3.93766e-08
1.98562e-08
4.83912e-08
1.54255e-08
5.90324e-08
9.04174e-09
7.15448e-08
3.29427e-10
8.62034e-08
-1.11392e-08
1.03317e-07
-2.58502e-08
1.23228e-07
-4.4355e-08
1.46317e-07
-6.72768e-08
1.72998e-07
-9.53182e-08
2.0372e-07
-1.2927e-07
2.3896e-07
-1.70022e-07
2.79219e-07
-2.18579e-07
3.25018e-07
-2.76094e-07
3.76905e-07
-3.4392e-07
4.35509e-07
-4.23661e-07
-5.17614e-07
5.01357e-07
6.83006e-11
1.15913e-09
2.93611e-10
3.44361e-09
7.0933e-10
5.80376e-09
1.35424e-09
8.19984e-09
2.27326e-09
1.05817e-08
3.51836e-09
1.28873e-08
5.14951e-09
1.50408e-08
7.23579e-09
1.69514e-08
9.85674e-09
1.85104e-08
1.31038e-08
1.95895e-08
1.70817e-08
2.00381e-08
2.19105e-08
1.96806e-08
2.77276e-08
1.83132e-08
3.46895e-08
1.57003e-08
4.29747e-08
1.1571e-08
5.27858e-08
5.61443e-09
6.4352e-08
-2.52446e-09
7.79316e-08
-1.32502e-08
9.3814e-08
-2.70217e-08
1.12323e-07
-4.43587e-08
1.33815e-07
-6.5847e-08
1.58682e-07
-9.21439e-08
1.87347e-07
-1.23984e-07
2.20261e-07
-1.62184e-07
2.5789e-07
-2.07651e-07
3.0071e-07
-2.61399e-07
3.49197e-07
-3.24581e-07
4.03828e-07
-3.9855e-07
4.65178e-07
-4.85011e-07
-5.85911e-07
5.33474e-07
7.35502e-11
1.08558e-09
3.16892e-10
3.20027e-09
7.6676e-10
5.35389e-09
1.46571e-09
7.50089e-09
2.46294e-09
9.58447e-09
3.81521e-09
1.1535e-08
5.58787e-09
1.32682e-08
7.85601e-09
1.46833e-08
1.07059e-08
1.56605e-08
1.42364e-08
1.60591e-08
1.85605e-08
1.5714e-08
2.38073e-08
1.44338e-08
3.01242e-08
1.19963e-08
3.76786e-08
8.14586e-09
4.66608e-08
2.58878e-09
5.72859e-08
-5.0106e-09
6.97961e-08
-1.50347e-08
8.44635e-08
-2.79176e-08
1.01592e-07
-4.41501e-08
1.21518e-07
-6.42848e-08
1.44611e-07
-8.89405e-08
1.71273e-07
-1.18806e-07
2.01932e-07
-1.54642e-07
2.37033e-07
-1.97285e-07
2.77028e-07
-2.47646e-07
3.22351e-07
-3.06722e-07
3.73408e-07
-3.75638e-07
4.30557e-07
-4.55699e-07
4.94306e-07
-5.4876e-07
-6.55985e-07
5.64381e-07
7.92152e-11
1.00636e-09
3.41818e-10
2.93766e-09
8.27921e-10
4.86779e-09
1.58391e-09
6.7449e-09
2.66332e-09
8.50506e-09
4.12777e-09
1.00705e-08
6.04809e-09
1.13479e-08
8.50552e-09
1.22258e-08
1.15932e-08
1.25729e-08
1.54174e-08
1.22348e-08
2.00997e-08
1.10318e-08
2.57784e-08
8.75506e-09
3.26109e-08
5.16382e-09
4.07756e-08
-1.88758e-11
5.04744e-08
-7.10999e-09
6.19346e-08
-1.64708e-08
7.54115e-08
-2.85116e-08
9.11905e-08
-4.36966e-08
1.09588e-07
-6.25479e-08
1.30954e-07
-8.56501e-08
1.55666e-07
-1.13653e-07
1.84134e-07
-1.47273e-07
2.16785e-07
-1.87293e-07
2.54058e-07
-2.34558e-07
2.96379e-07
-2.89967e-07
3.44132e-07
-3.54476e-07
3.97623e-07
-4.29129e-07
4.57008e-07
-5.15084e-07
5.22647e-07
-6.14399e-07
-7.26894e-07
5.93556e-07
8.54638e-11
9.20897e-10
3.69052e-10
2.65407e-09
8.94303e-10
4.34254e-09
1.71149e-09
5.92771e-09
2.87854e-09
7.33802e-09
4.46203e-09
8.48705e-09
6.53834e-09
9.27156e-09
9.19499e-09
9.56917e-09
1.2532e-08
9.23589e-09
1.66634e-08
8.1034e-09
2.17192e-08
5.97599e-09
2.7847e-08
2.62726e-09
3.52142e-08
-2.20342e-09
4.40101e-08
-8.81477e-09
5.44478e-08
-1.75477e-08
6.67669e-08
-2.87899e-08
8.12351e-08
-4.29798e-08
9.81497e-08
-6.06112e-08
1.17839e-07
-8.22371e-08
1.40661e-07
-1.08472e-07
1.67003e-07
-1.39995e-07
1.97275e-07
-1.77545e-07
2.31903e-07
-2.21921e-07
2.71313e-07
-2.73967e-07
3.15905e-07
-3.3456e-07
3.66013e-07
-4.04583e-07
4.21831e-07
-4.84947e-07
4.83217e-07
-5.7647e-07
5.50009e-07
-6.81192e-07
-7.97121e-07
6.20236e-07
9.24385e-11
8.28458e-10
3.99153e-10
2.34736e-09
9.6716e-10
3.77453e-09
1.85068e-09
5.04419e-09
3.1121e-09
6.0766e-09
4.82301e-09
6.77614e-09
7.06548e-09
7.02909e-09
9.93331e-09
6.70135e-09
1.35335e-08
5.63571e-09
1.79879e-08
3.64902e-09
2.34349e-08
5.28969e-10
3.00314e-08
-3.96926e-09
3.79547e-08
-1.01267e-08
4.74046e-08
-1.82646e-08
5.86054e-08
-2.87486e-08
7.18081e-08
-4.19925e-08
8.72914e-08
-5.84631e-08
1.05363e-07
-7.86832e-08
1.26361e-07
-1.03235e-07
1.5065e-07
-1.32761e-07
1.78619e-07
-1.67964e-07
2.10678e-07
-2.09604e-07
2.47244e-07
-2.58487e-07
2.88729e-07
-3.15453e-07
3.35513e-07
-3.81345e-07
3.87902e-07
-4.56972e-07
4.46034e-07
-5.43079e-07
5.0959e-07
-6.40026e-07
5.7735e-07
-7.48951e-07
-8.62978e-07
6.43207e-07
1.00249e-10
7.28208e-10
4.32556e-10
2.01505e-09
1.04748e-09
3.15961e-09
2.00323e-09
4.08843e-09
3.36673e-09
4.71311e-09
5.21467e-09
4.9282e-09
7.6348e-09
4.60896e-09
1.07273e-08
3.60887e-09
1.46061e-08
1.75685e-09
1.9401e-08
-1.14579e-09
2.52585e-08
-5.32859e-09
3.23447e-08
-1.10555e-08
4.08466e-08
-1.86286e-08
5.09742e-08
-2.83922e-08
6.29622e-08
-4.07366e-08
7.70718e-08
-5.61021e-08
9.35915e-08
-7.49828e-08
1.12838e-07
-9.79293e-08
1.35153e-07
-1.2555e-07
1.60906e-07
-1.58514e-07
1.90484e-07
-1.97542e-07
2.24289e-07
-2.43409e-07
2.62723e-07
-2.96922e-07
3.06179e-07
-3.58909e-07
3.5502e-07
-4.30185e-07
4.09558e-07
-5.1151e-07
4.70003e-07
-6.03525e-07
5.36493e-07
-7.06516e-07
6.08947e-07
-8.21405e-07
-9.45963e-07
6.91931e-07
1.0898e-10
6.19227e-10
4.69587e-10
1.65444e-09
1.13597e-09
2.49323e-09
2.17041e-09
3.054e-09
3.64438e-09
3.23914e-09
5.63974e-09
2.93283e-09
8.24997e-09
1.99873e-09
1.15815e-08
2.77287e-10
1.57555e-08
-2.41711e-09
2.0909e-08
-6.29928e-09
2.71971e-08
-1.16167e-08
3.47945e-08
-1.86529e-08
4.38976e-08
-2.77317e-08
5.47258e-08
-3.92204e-08
6.75232e-08
-5.35341e-08
8.256e-08
-7.11388e-08
1.00132e-07
-9.25549e-08
1.20562e-07
-1.18359e-07
1.44194e-07
-1.49183e-07
1.71395e-07
-1.85715e-07
2.02544e-07
-2.28692e-07
2.38026e-07
-2.78891e-07
2.78219e-07
-3.37114e-07
3.23479e-07
-4.04168e-07
3.74123e-07
-4.80829e-07
4.30406e-07
-5.67793e-07
4.92504e-07
-6.65623e-07
5.60607e-07
-7.74619e-07
6.34681e-07
-8.95479e-07
-1.02562e-06
7.14335e-07
1.18675e-10
5.00551e-10
5.10422e-10
1.26269e-09
1.23304e-09
1.77061e-09
2.35291e-09
1.93413e-09
3.94614e-09
1.6459e-09
6.09974e-09
7.79236e-10
8.91289e-09
-8.14417e-10
1.24984e-08
-3.30819e-09
1.69841e-08
-6.9028e-09
2.25146e-08
-1.18298e-08
2.92531e-08
-1.83551e-08
3.73826e-08
-2.67825e-08
4.71082e-08
-3.74572e-08
5.86578e-08
-5.077e-08
7.22836e-08
-6.71599e-08
8.82628e-08
-8.7118e-08
1.06897e-07
-1.11189e-07
1.2851e-07
-1.39972e-07
1.53445e-07
-1.74118e-07
1.82062e-07
-2.14331e-07
2.14723e-07
-2.61353e-07
2.51789e-07
-3.15956e-07
2.93598e-07
-3.78923e-07
3.40453e-07
-4.51023e-07
3.92592e-07
-5.32969e-07
4.50161e-07
-6.25362e-07
5.13197e-07
-7.28659e-07
5.81616e-07
-8.43037e-07
6.54889e-07
-9.68752e-07
-1.10253e-06
7.31804e-07
1.29351e-10
3.712e-10
5.55123e-10
8.36922e-10
1.33881e-09
9.8693e-10
2.55095e-09
7.2198e-10
4.27229e-09
-7.54391e-11
6.59496e-09
-1.54343e-09
9.62379e-09
-3.84325e-09
1.34778e-08
-7.16216e-09
1.82915e-08
-1.17165e-08
2.42169e-08
-1.77552e-08
3.14246e-08
-2.55628e-08
4.01055e-08
-3.54634e-08
5.04724e-08
-4.78241e-08
6.27606e-08
-6.30582e-08
7.72291e-08
-8.16284e-08
9.41596e-08
-1.04049e-07
1.13856e-07
-1.30885e-07
1.36642e-07
-1.62757e-07
1.62853e-07
-2.0033e-07
1.92835e-07
-2.44314e-07
2.2693e-07
-2.95448e-07
2.65461e-07
-3.54487e-07
3.08719e-07
-4.22181e-07
3.56936e-07
-4.9924e-07
4.1025e-07
-5.86283e-07
4.68682e-07
-6.83794e-07
5.32106e-07
-7.92083e-07
6.00173e-07
-9.11104e-07
6.72087e-07
-1.04067e-06
-1.17705e-06
7.46605e-07
1.40995e-10
2.30205e-10
6.03638e-10
3.74281e-10
1.45316e-09
1.37411e-10
2.76428e-09
-5.8914e-10
4.62234e-09
-1.93351e-09
7.12458e-09
-4.04566e-09
1.03814e-08
-7.10007e-09
1.45178e-08
-1.12986e-08
1.9675e-08
-1.68737e-08
2.60116e-08
-2.40918e-08
3.37053e-08
-3.32565e-08
4.29543e-08
-4.47123e-08
5.39778e-08
-5.88477e-08
6.70174e-08
-7.60978e-08
8.23365e-08
-9.69475e-08
1.0022e-07
-1.21932e-07
1.2097e-07
-1.51635e-07
1.44905e-07
-1.86692e-07
1.7235e-07
-2.27776e-07
2.03631e-07
-2.75595e-07
2.3906e-07
-3.30876e-07
2.78918e-07
-3.94345e-07
3.23437e-07
-4.667e-07
3.72764e-07
-5.48567e-07
4.26934e-07
-6.40453e-07
4.85849e-07
-7.42709e-07
5.49221e-07
-8.55456e-07
6.16519e-07
-9.78402e-07
6.86836e-07
-1.11098e-06
-1.24922e-06
7.59007e-07
1.53571e-10
7.66348e-11
6.55809e-10
-1.27956e-10
1.57572e-09
-7.82499e-10
2.99218e-09
-2.0056e-09
4.99514e-09
-3.93646e-09
7.68681e-09
-6.73734e-09
1.11831e-08
-1.05963e-08
1.56148e-08
-1.57303e-08
2.11292e-08
-2.23881e-08
2.78914e-08
-3.0854e-08
3.60854e-08
-4.14506e-08
4.59155e-08
-5.45424e-08
5.76066e-08
-7.05388e-08
7.14046e-08
-8.98958e-08
8.75754e-08
-1.13118e-07
1.06403e-07
-1.4076e-07
1.28187e-07
-1.73419e-07
1.53235e-07
-2.1174e-07
1.81858e-07
-2.56398e-07
2.14353e-07
-3.08091e-07
2.50998e-07
-3.67521e-07
2.92025e-07
-4.35372e-07
3.37594e-07
-5.12269e-07
3.87764e-07
-5.98738e-07
4.42475e-07
-6.95164e-07
5.01509e-07
-8.01743e-07
5.64438e-07
-9.18385e-07
6.30615e-07
-1.04458e-06
6.99084e-07
-1.17945e-06
-1.31893e-06
7.68789e-07
1.67019e-10
-9.03839e-11
7.11404e-10
-6.72339e-10
1.70593e-09
-1.77703e-09
3.23364e-09
-3.53331e-09
5.38897e-09
-6.0918e-09
8.27907e-09
-9.62744e-09
1.2025e-08
-1.43423e-08
1.67632e-08
-2.04685e-08
2.26467e-08
-2.82716e-08
2.98462e-08
-3.80535e-08
3.85514e-08
-5.01558e-08
4.89717e-08
-6.49627e-08
6.1336e-08
-8.29031e-08
7.58928e-08
-1.04453e-07
9.29083e-08
-1.30134e-07
1.12664e-07
-1.60515e-07
1.3545e-07
-1.96206e-07
1.61562e-07
-2.37852e-07
1.91288e-07
-2.86124e-07
2.24897e-07
-3.41699e-07
2.62622e-07
-4.05246e-07
3.04637e-07
-4.77387e-07
3.51027e-07
-5.58659e-07
4.01768e-07
-6.49479e-07
4.56704e-07
-7.50099e-07
5.15497e-07
-8.60536e-07
5.77613e-07
-9.80501e-07
6.42329e-07
-1.10929e-06
7.08672e-07
-1.2458e-06
-1.38594e-06
7.75692e-07
1.81266e-10
-2.71649e-10
7.70116e-10
-1.26119e-09
1.84309e-09
-2.85e-09
3.48732e-09
-5.17754e-09
5.80167e-09
-8.40615e-09
8.898e-09
-1.27238e-08
1.29024e-08
-1.83467e-08
1.79564e-08
-2.55225e-08
2.42182e-08
-3.45334e-08
3.18637e-08
-4.5699e-08
4.10872e-08
-5.93794e-08
5.21019e-08
-7.59773e-08
6.51393e-08
-9.59405e-08
8.04483e-08
-1.19762e-07
9.8293e-08
-1.47978e-07
1.18948e-07
-1.8117e-07
1.42694e-07
-2.19951e-07
1.69806e-07
-2.64965e-07
2.00548e-07
-3.16865e-07
2.35151e-07
-3.76303e-07
2.73801e-07
-4.43896e-07
3.16606e-07
-5.20192e-07
3.63577e-07
-6.0563e-07
4.14609e-07
-7.0051e-07
4.69443e-07
-8.04933e-07
5.27642e-07
-9.18735e-07
5.88594e-07
-1.04145e-06
6.51519e-07
-1.17222e-06
7.15449e-07
-1.30973e-06
-1.45003e-06
7.79531e-07
1.96226e-10
-4.67874e-10
8.31588e-10
-1.89655e-09
1.98636e-09
-4.00477e-09
3.75166e-09
-6.94285e-09
6.23066e-09
-1.08851e-08
9.53969e-09
-1.60328e-08
1.38095e-08
-2.26165e-08
1.91864e-08
-3.08994e-08
2.58331e-08
-4.11801e-08
3.39298e-08
-5.37957e-08
4.36744e-08
-6.9124e-08
5.52825e-08
-8.75854e-08
6.89865e-08
-1.09644e-07
8.50336e-08
-1.35809e-07
1.03683e-07
-1.66628e-07
1.252e-07
-2.02687e-07
1.49849e-07
-2.44601e-07
1.77885e-07
-2.93001e-07
2.09539e-07
-3.48519e-07
2.45003e-07
-4.11767e-07
2.84406e-07
-4.83299e-07
3.27788e-07
-5.63574e-07
3.75091e-07
-6.52933e-07
4.26123e-07
-7.51542e-07
4.80531e-07
-8.59341e-07
5.37798e-07
-9.76002e-07
5.97249e-07
-1.10091e-06
6.58068e-07
-1.23304e-06
7.19312e-07
-1.37097e-06
-1.51093e-06
7.80217e-07
2.11802e-10
-6.79675e-10
8.95423e-10
-2.58017e-09
2.13479e-09
-5.24414e-09
4.02492e-09
-8.83298e-09
6.67306e-09
-1.35333e-08