/*--------------------------------*- C++ -*----------------------------------*\
| =========                 |                                                 |
| \\      /  F ield         | foam-extend: Open Source CFD                    |
|  \\    /   O peration     | Version:     4.0                                |
|   \\  /    A nd           | Web:         http://www.foam-extend.org         |
|    \\/     M anipulation  |                                                 |
\*---------------------------------------------------------------------------*/
FoamFile
{
    version     2.0;
    format      ascii;
    class       volVectorField;
    location    "75";
    object      U;
}
// * * * * * * * * * * * * * * * * * * * * * * * * * * * * * * * * * * * * * //

dimensions      [0 1 -1 0 0 0 0];

internalField   nonuniform List<vector> 
36000
(
(-2.7096e-07 1.26901e-06 -2.5322e-25)
(-2.72012e-06 3.61711e-06 2.61447e-25)
(-7.83697e-06 5.84923e-06 0)
(-1.56837e-05 7.95959e-06 0)
(-2.62752e-05 9.94327e-06 -2.26513e-25)
(-3.96428e-05 1.17955e-05 -2.14748e-25)
(-5.58187e-05 1.3512e-05 0)
(-7.48166e-05 1.50893e-05 0)
(-9.66287e-05 1.65246e-05 0)
(-0.000121226 1.78162e-05 0)
(-0.000148558 1.89629e-05 0)
(-0.000178552 1.99643e-05 -2.99829e-25)
(-0.000211116 2.0821e-05 -4.71578e-28)
(-0.000246133 2.15338e-05 -2.6215e-25)
(-0.000283467 2.21044e-05 2.44788e-25)
(-0.000322958 2.25346e-05 -2.27707e-25)
(-0.000364428 2.28266e-05 4.24435e-25)
(-0.000407674 2.29828e-05 -1.97302e-25)
(-0.000452473 2.30051e-05 1.82882e-25)
(-0.000498581 2.28948e-05 5.09199e-25)
(-0.00054573 2.26526e-05 1.4639e-28)
(-0.000593623 2.22777e-05 5.81279e-25)
(-0.000641937 2.1767e-05 -1.34076e-25)
(-0.000690313 2.11157e-05 -2.47308e-25)
(-0.00073835 2.03158e-05 -2.27916e-25)
(-0.000785599 1.93567e-05 0)
(-0.000831553 1.82245e-05 0)
(-0.00087564 1.68998e-05 0)
(-0.000917177 1.53505e-05 1.60595e-25)
(-0.000955295 1.35349e-05 -2.93657e-25)
(-4.00567e-07 3.80683e-06 0)
(-3.0649e-06 1.08547e-05 0)
(-8.35171e-06 1.75589e-05 0)
(-1.63224e-05 2.39019e-05 9.56149e-25)
(-2.69916e-05 2.98689e-05 -2.24283e-25)
(-4.03901e-05 3.54454e-05 2.14733e-25)
(-5.65494e-05 4.06184e-05 0)
(-7.54824e-05 4.53771e-05 0)
(-9.71808e-05 4.97132e-05 -7.24658e-25)
(-0.000121614 5.36208e-05 6.7968e-25)
(-0.000148732 5.70963e-05 -6.40123e-25)
(-0.000178462 6.01383e-05 5.98617e-25)
(-0.000210707 6.27478e-05 2.80436e-25)
(-0.000245353 6.49274e-05 2.62036e-25)
(-0.000282259 6.66814e-05 4.88954e-25)
(-0.000321265 6.80149e-05 0)
(-0.000362188 6.89345e-05 -1.27412e-24)
(-0.000404824 6.94464e-05 -1.1751e-27)
(-0.000448946 6.95564e-05 1.46499e-24)
(-0.000494304 6.92684e-05 -1.01806e-24)
(-0.000540625 6.85836e-05 -6.29206e-25)
(-0.000587606 6.74994e-05 5.82177e-25)
(-0.000634916 6.6007e-05 -5.36669e-25)
(-0.000682188 6.40909e-05 9.90873e-25)
(-0.000729012 6.17276e-05 -2.03993e-29)
(-0.000774927 5.88848e-05 8.38101e-25)
(-0.000819417 5.55202e-05 -1.15514e-24)
(-0.000861904 5.15752e-05 0)
(-0.000901693 4.69554e-05 0)
(-0.000937678 4.15431e-05 0)
(-6.56347e-07 6.28542e-06 1.01714e-24)
(-3.74554e-06 1.79274e-05 4.86716e-27)
(-9.36806e-06 2.90076e-05 -1.50545e-24)
(-1.75836e-05 3.94967e-05 1.91681e-24)
(-2.84065e-05 4.93695e-05 -2.26719e-24)
(-4.18662e-05 5.86016e-05 -1.7256e-24)
(-5.79926e-05 6.71706e-05 3.25874e-24)
(-7.67973e-05 7.50583e-05 -1.53585e-24)
(-9.82703e-05 8.22502e-05 0)
(-0.00012238 8.87359e-05 0)
(-0.000149074 9.45085e-05 0)
(-0.000178278 9.95653e-05 0)
(-0.000209893 0.000103907 1.12521e-24)
(-0.000243801 0.000107537 -2.62576e-24)
(-0.000279858 0.000110462 1.961e-24)
(-0.0003179 0.000112689 0)
(-0.000357739 0.00011423 8.50968e-25)
(-0.000399163 0.000115094 -7.89688e-25)
(-0.000441939 0.000115289 0)
(-0.000485807 0.000114823 0)
(-0.000530483 0.000113695 3.14957e-24)
(-0.000575653 0.000111903 -1.74561e-24)
(-0.00062097 0.00010943 0)
(-0.000666051 0.000106251 7.18341e-28)
(-0.000710466 0.000102327 -9.13236e-25)
(-0.000753735 9.76057e-05 -8.42347e-25)
(-0.000795321 9.20158e-05 7.68691e-25)
(-0.000834636 8.54603e-05 7.07545e-25)
(-0.000870967 7.77886e-05 0)
(-0.000902725 6.88333e-05 1.76738e-24)
(-1.03106e-06 8.66721e-06 0)
(-4.74309e-06 2.47303e-05 0)
(-1.08581e-05 4.00291e-05 5.0326e-25)
(-1.94332e-05 5.4522e-05 -1.92354e-24)
(-3.04817e-05 6.81732e-05 3.64646e-24)
(-4.40312e-05 8.09475e-05 -2.59083e-24)
(-6.01092e-05 9.28131e-05 0)
(-7.87247e-05 0.000103743 0)
(-9.98654e-05 0.000113716 -2.1844e-24)
(-0.000123498 0.000122717 2.735e-24)
(-0.000149566 0.000130733 -1.28243e-24)
(-0.000177992 0.000137761 -1.20589e-24)
(-0.000208675 0.000143799 2.25581e-24)
(-0.000241492 0.000148852 -2.10377e-24)
(-0.000276293 0.000152926 -9.81498e-25)
(-0.000312907 0.000156032 0)
(-0.00035114 0.000158183 -3.41264e-24)
(-0.000390769 0.000159391 -3.57205e-27)
(-0.000431551 0.000159668 2.94372e-24)
(-0.000473212 0.00015902 2.84237e-27)
(-0.000515451 0.00015745 1.94629e-27)
(-0.000557938 0.00015495 8.62129e-28)
(-0.000600303 0.000151498 -1.07732e-24)
(-0.000642139 0.00014706 1.99078e-24)
(-0.00068299 0.000141582 0)
(-0.000722347 0.00013499 -1.11115e-27)
(-0.000759641 0.000127187 3.09081e-24)
(-0.000794273 0.000118038 -1.41838e-24)
(-0.000825515 0.000107344 -3.89443e-24)
(-0.000851042 9.49199e-05 -3.54661e-24)
(-1.51424e-06 1.09175e-05 1.53952e-24)
(-6.03009e-06 3.11663e-05 -3.1836e-24)
(-1.27813e-05 5.04688e-05 2.02238e-24)
(-2.18212e-05 6.87711e-05 1.93237e-24)
(-3.31616e-05 8.60258e-05 -1.8281e-24)
(-4.68272e-05 0.000102187 8.65896e-25)
(-6.28417e-05 0.000117211 -2.46472e-24)
(-8.12108e-05 0.000131063 6.19575e-24)
(-0.000101919 0.000143714 -7.23372e-25)
(-0.000124928 0.00015514 1.37556e-24)
(-0.00015018 0.000165327 -1.29135e-24)
(-0.000177592 0.000174264 1.20579e-24)
(-0.000207058 0.000181949 0)
(-0.000238447 0.000188383 0)
(-0.000271605 0.000193575 3.94799e-24)
(-0.000306351 0.000197536 -1.83529e-24)
(-0.000342479 0.00020028 1.70684e-24)
(-0.000379758 0.000201821 1.58631e-24)
(-0.000417925 0.000202172 -2.94952e-24)
(-0.000456694 0.000201339 -4.10187e-24)
(-0.000495741 0.000199325 1.26489e-24)
(-0.000534711 0.000196117 4.68602e-24)
(-0.00057321 0.00019169 -2.1609e-24)
(-0.000610799 0.000185997 6.59538e-27)
(-0.000646988 0.000178971 1.83974e-24)
(-0.00068123 0.00017052 -1.69215e-24)
(-0.00071292 0.000160523 -1.54956e-24)
(-0.000741439 0.000148807 3.40147e-27)
(-0.000766084 0.00013512 1.29186e-24)
(-0.00078348 0.000119325 2.36691e-24)
(-2.09261e-06 1.30051e-05 4.6405e-24)
(-7.57167e-06 3.71481e-05 -1.06568e-24)
(-1.50861e-05 6.01876e-05 0)
(-2.46841e-05 8.2057e-05 -9.7319e-25)
(-3.63751e-05 0.000102697 -4.61259e-24)
(-5.01798e-05 0.000122049 5.23307e-24)
(-6.61167e-05 0.000140059 2.48073e-24)
(-8.41868e-05 0.000156681 -1.54747e-24)
(-0.00010437 0.000171877 1.47301e-24)
(-0.000126623 0.000185616 -6.88906e-24)
(-0.000150882 0.000197876 3.87616e-24)
(-0.000177059 0.000208642 -1.21223e-24)
(-0.000205042 0.000217906 4.53897e-24)
(-0.000234691 0.00022567 -2.11859e-24)
(-0.000265844 0.000231938 -5.93801e-24)
(-0.000298309 0.000236721 3.68694e-24)
(-0.000331867 0.000240034 -3.43074e-24)
(-0.000366272 0.00024189 -4.39956e-27)
(-0.000401245 0.000242303 -1.48814e-24)
(-0.000436476 0.00024128 -1.3754e-24)
(-0.00047162 0.000238817 5.07948e-24)
(-0.000506293 0.000234902 -4.69225e-24)
(-0.000540067 0.0002295 0)
(-0.00057247 0.000222557 -2.00126e-24)
(-0.000602971 0.000213993 -1.84001e-24)
(-0.000630978 0.000203699 -3.40161e-24)
(-0.000655843 0.000191531 3.1213e-24)
(-0.000676917 0.000177285 0)
(-0.000693577 0.00016066 6.53052e-24)
(-0.000701112 0.0001416 -1.19441e-24)
(-2.7506e-06 1.49039e-05 0)
(-9.32684e-06 4.26011e-05 0)
(-1.77116e-05 6.90656e-05 0)
(-2.79467e-05 9.42175e-05 -6.86597e-27)
(-4.0038e-05 0.000117985 6.49514e-24)
(-5.40004e-05 0.000140296 -5.25451e-24)
(-6.98461e-05 0.000161085 3.32203e-24)
(-8.75695e-05 0.000180295 -6.25642e-24)
(-0.000107144 0.000197877 -1.47825e-24)
(-0.00012852 0.000213791 -2.77395e-24)
(-0.000151628 0.000228006 2.59782e-24)
(-0.00017637 0.000240501 1.22358e-24)
(-0.000202627 0.000251262 8.08675e-27)
(-0.000230251 0.000260286 0)
(-0.000259066 0.000267576 -9.11966e-27)
(-0.00028887 0.000273139 1.8495e-24)
(-0.000319429 0.000276988 -1.71601e-24)
(-0.000350478 0.000279136 1.59738e-24)
(-0.000381718 0.000279594 5.94275e-24)
(-0.000412817 0.000278368 -4.60611e-27)
(-0.0004434 0.000275452 -2.5529e-24)
(-0.000473053 0.000270826 -2.35265e-24)
(-0.000501313 0.000264452 -5.50506e-27)
(-0.000527666 0.000256265 -2.02181e-24)
(-0.000551539 0.000246173 -3.70988e-24)
(-0.000572288 0.000234051 5.10935e-24)
(-0.000589219 0.000219738 -1.55669e-24)
(-0.000601638 0.000203003 -2.86642e-24)
(-0.000609093 0.000183538 -5.24212e-24)
(-0.000605167 0.000161307 2.40031e-24)
(-3.47099e-06 1.65923e-05 -4.1937e-24)
(-1.12501e-05 4.74643e-05 0)
(-2.05903e-05 7.70039e-05 -4.14441e-24)
(-3.15253e-05 0.000105118 4.90846e-24)
(-4.40558e-05 0.000131721 -5.59718e-24)
(-5.81896e-05 0.000156727 7.0673e-24)
(-7.39304e-05 0.000180059 -6.67809e-24)
(-9.12642e-05 0.000201647 1.5626e-24)
(-0.000110156 0.000221429 2.95252e-24)
(-0.000130549 0.000239356 -6.16516e-27)
(-0.000152363 0.000255386 -5.23539e-24)
(-0.000175494 0.00026949 4.90378e-24)
(-0.000199809 0.000281649 -4.57649e-24)
(-0.000225151 0.00029185 -8.56207e-24)
(-0.00025133 0.000300092 5.9823e-24)
(-0.00027813 0.00030638 1.85563e-24)
(-0.0003053 0.000310722 -5.19578e-24)
(-0.000332555 0.000313129 -3.22337e-24)
(-0.000359575 0.000313609 -2.97762e-24)
(-0.000385999 0.000312164 8.30004e-24)
(-0.000411424 0.000308784 -2.57097e-24)
(-0.000435401 0.000303444 5.90898e-27)
(-0.00045743 0.000296098 -4.38852e-24)
(-0.000476954 0.000286673 8.07199e-24)
(-0.000493354 0.000275064 3.71014e-24)
(-0.000505932 0.000261133 -3.41353e-24)
(-0.000513947 0.000244695 9.24785e-27)
(-0.000516635 0.000225515 2.88591e-24)
(-0.000513892 0.000203319 5.26555e-24)
(-0.000496975 0.000178039 -7.22635e-24)
(-4.23554e-06 1.80548e-05 4.23818e-24)
(-1.32932e-05 5.1692e-05 -5.47602e-24)
(-2.36501e-05 8.39274e-05 -4.17882e-24)
(-3.533e-05 0.000114654 3.96106e-24)
(-4.83271e-05 0.000143772 3.76582e-24)
(-6.26397e-05 0.000171183 -1.76868e-24)
(-7.82612e-05 0.000196795 0)
(-9.51672e-05 0.000220524 0)
(-0.000113312 0.000242298 1.48743e-24)
(-0.00013263 0.000262052 2.79562e-24)
(-0.000153028 0.000279737 7.88858e-24)
(-0.000174391 0.000295311 -4.92425e-24)
(-0.000196575 0.000308747 -1.33813e-26)
(-0.000219409 0.000320025 4.30717e-24)
(-0.000242689 0.000329137 -2.00775e-24)
(-0.000266181 0.000336082 -3.73658e-24)
(-0.000289616 0.000340863 1.04363e-23)
(-0.000312687 0.000343487 3.22693e-24)
(-0.000335049 0.000343956 9.05587e-27)
(-0.000356314 0.000342269 7.67825e-27)
(-0.000376047 0.00033841 -4.61846e-27)
(-0.000393764 0.000332348 2.37993e-24)
(-0.000408924 0.00032403 6.59344e-24)
(-0.000420929 0.000313373 1.8595e-26)
(-0.000429112 0.000300256 3.7359e-24)
(-0.00043272 0.000284537 -1.03211e-23)
(-0.000430968 0.000266022 -6.3168e-24)
(-0.00042299 0.000244454 3.2772e-27)
(-0.000409269 0.000219566 2.65891e-24)
(-0.00037797 0.000191366 4.81472e-24)
(-5.02569e-06 1.92814e-05 -3.20512e-24)
(-1.54067e-05 5.5254e-05 5.51845e-24)
(-2.68169e-05 8.97848e-05 -2.11568e-24)
(-3.92683e-05 0.000122753 6.01439e-24)
(-5.27464e-05 0.000154045 -3.78866e-24)
(-6.72382e-05 0.000183547 -1.78711e-24)
(-8.27243e-05 0.000211153 -6.78309e-24)
(-9.91676e-05 0.000236766 6.3824e-24)
(-0.00011651 0.000260298 -3.01667e-24)
(-0.000134672 0.000281675 0)
(-0.00015355 0.000300832 -5.29917e-24)
(-0.000173013 0.000317717 4.95558e-24)
(-0.000192904 0.000332293 -2.32795e-24)
(-0.000213034 0.000344531 4.32681e-24)
(-0.000233186 0.000354413 2.01283e-24)
(-0.000253106 0.000361933 0)
(-0.000272503 0.000367085 1.86058e-26)
(-0.000291048 0.000369871 0)
(-0.000308369 0.000370288 1.50859e-26)
(-0.000324049 0.000368328 5.59331e-24)
(-0.000337621 0.00036397 5.1849e-24)
(-0.000348562 0.000357175 2.39299e-24)
(-0.000356298 0.000347879 -1.32366e-23)
(-0.000360184 0.000335997 8.23733e-27)
(-0.000359512 0.0003214 0)
(-0.000353479 0.000303921 6.90918e-24)
(-0.00034124 0.000283352 -6.675e-27)
(-0.000321748 0.00025945 8.75838e-24)
(-0.000296498 0.000231935 0)
(-0.000249672 0.000201025 -4.84697e-24)
(-5.82317e-06 2.02677e-05 1.09678e-24)
(-1.75416e-05 5.81358e-05 2.24497e-24)
(-3.00169e-05 9.45493e-05 4.25181e-24)
(-4.32473e-05 0.000129374 -1.21189e-23)
(-5.72074e-05 0.000162481 5.72333e-24)
(-7.18705e-05 0.000193744 -5.42527e-24)
(-8.72021e-05 0.000223041 1.36628e-23)
(-0.00010315 0.00025026 -6.43271e-24)
(-0.000119641 0.000275301 6.05609e-24)
(-0.000136581 0.000298074 0)
(-0.000153849 0.000318501 0)
(-0.0001713 0.00033652 7.49829e-24)
(-0.00018876 0.000352079 4.47476e-27)
(-0.000206023 0.000365141 -4.3537e-24)
(-0.000222852 0.000375679 1.06074e-26)
(-0.000238972 0.000383674 -1.25551e-26)
(-0.000254071 0.000389117 -7.02266e-24)
(-0.000267794 0.000391999 3.26368e-24)
(-0.000279742 0.000392311 -3.02121e-24)
(-0.000289467 0.000390038 2.81553e-24)
(-0.00029647 0.000385152 -1.03771e-23)
(-0.000300195 0.000377609 -9.62056e-24)
(-0.000300031 0.000367342 4.4444e-24)
(-0.000295292 0.000354247 8.19434e-24)
(-0.000285225 0.000338185 -3.78007e-24)
(-0.00026898 0.000318978 -3.46327e-24)
(-0.000245663 0.000296395 0)
(-0.000213893 0.000270223 -5.84405e-24)
(-0.000176619 0.000239986 0)
(-0.00011381 0.000207302 7.29798e-24)
(-6.61061e-06 2.10148e-05 -2.17097e-24)
(-1.9651e-05 6.03376e-05 6.7876e-24)
(-3.31788e-05 9.82173e-05 -8.55826e-24)
(-4.71765e-05 0.000134506 -1.94224e-26)
(-6.16053e-05 0.000169062 3.86091e-24)
(-7.64227e-05 0.000201743 -9.12139e-24)
(-9.15764e-05 0.000232413 6.8846e-24)
(-0.000106996 0.000260947 0)
(-0.000122593 0.000287229 3.06562e-24)
(-0.000138252 0.000311155 -8.60149e-24)
(-0.000153836 0.000332634 0)
(-0.000169182 0.000351589 -1.00534e-23)
(-0.000184095 0.000367958 4.69503e-24)
(-0.000198352 0.000381692 -4.39734e-24)
(-0.000211694 0.000392751 -4.06161e-24)
(-0.000223823 0.000401109 7.59313e-24)
(-0.000234402 0.000406745 0)
(-0.00024305 0.000409643 3.29153e-24)
(-0.00024934 0.000409786 6.09118e-24)
(-0.000252793 0.000407152 -1.12959e-23)
(-0.000252883 0.00040171 5.22274e-24)
(-0.00024902 0.000393404 -4.83808e-24)
(-0.000240552 0.000382158 -4.45856e-24)
(-0.000226753 0.000367861 -4.11118e-24)
(-0.000206831 0.000350363 -7.76445e-27)
(-0.000179897 0.000329478 0)
(-0.000145051 0.000304965 -6.42412e-24)
(-0.000100507 0.000276751 0)
(-5.00452e-05 0.000243224 0)
(2.80674e-05 0.000209775 4.92298e-24)
(-7.37202e-06 2.15289e-05 2.21833e-24)
(-2.16913e-05 6.18735e-05 -2.2922e-24)
(-3.62358e-05 0.000100807 -1.08348e-23)
(-5.097e-05 0.000138169 1.02727e-23)
(-6.58397e-05 0.000173802 -9.73594e-24)
(-8.07838e-05 0.000207553 1.10614e-23)
(-9.57299e-05 0.000239271 -6.95086e-24)
(-0.000110588 0.000268817 1.30855e-23)
(-0.000125247 0.000296059 -6.14856e-24)
(-0.000139574 0.00032088 2.87541e-24)
(-0.00015341 0.000343176 2.6958e-24)
(-0.000166571 0.000362855 -5.07762e-24)
(-0.000178843 0.000379843 0)
(-0.000189978 0.000394078 4.41119e-24)
(-0.000199694 0.00040551 1.18275e-26)
(-0.000207668 0.000414101 7.66241e-24)
(-0.000213538 0.000419819 -7.12019e-24)
(-0.000216893 0.00042264 3.31056e-24)
(-0.000217285 0.000422543 -6.10593e-24)
(-0.000214202 0.000419494 1.13258e-23)
(-0.000207088 0.000413454 0)
(-0.000195316 0.000404363 0)
(-0.000178198 0.000392134 8.94705e-24)
(-0.000154973 0.000376649 4.12282e-24)
(-0.000124805 0.000357747 -7.61107e-24)
(-8.67582e-05 0.000335241 -3.51555e-24)
(-3.98904e-05 0.000308891 6.42432e-24)
(1.73762e-05 0.000278595 5.9208e-24)
(8.20181e-05 0.000242066 5.43616e-24)
(0.000175855 0.000207513 -4.90251e-24)
(-8.09314e-06 2.18201e-05 -1.11401e-23)
(-2.36231e-05 6.27694e-05 2.29219e-24)
(-3.91264e-05 0.000102355 0)
(-5.4548e-05 0.000140405 0)
(-6.98156e-05 0.00017675 -7.86926e-24)
(-8.48474e-05 0.000211222 3.73094e-24)
(-9.95483e-05 0.000243658 0)
(-0.000113805 0.000273904 0)
(-0.000127485 0.000301817 -3.08854e-24)
(-0.00014043 0.000327265 8.73708e-24)
(-0.00015246 0.000350129 -2.03702e-26)
(-0.000163368 0.000370305 2.55778e-24)
(-0.000172916 0.000387707 -1.67126e-26)
(-0.000180829 0.000402258 -8.86705e-24)
(-0.000186799 0.000413898 8.28573e-24)
(-0.000190477 0.000422576 2.27207e-26)
(-0.000191474 0.000428254 3.56574e-24)
(-0.000189356 0.000430896 1.32927e-23)
(-0.000183642 0.000430472 -1.84599e-23)
(-0.000173797 0.000426944 0)
(-0.000159226 0.000420263 0)
(-0.000139272 0.000410361 9.75386e-24)
(-0.000113213 0.000397145 -4.49676e-24)
(-8.02506e-05 0.000380487 4.1549e-24)
(-3.95127e-05 0.000360218 -3.82009e-24)
(9.97877e-06 0.000336141 2.10892e-23)
(6.91984e-05 0.000307993 -1.13307e-27)
(0.000139591 0.000275582 -8.88681e-24)
(0.000218564 0.000236864 1.67634e-26)
(0.00032875 0.000200411 9.86605e-24)
(-8.76167e-06 2.19023e-05 -6.75419e-24)
(-2.54116e-05 6.30611e-05 9.3135e-24)
(-4.17958e-05 0.000102915 0)
(-5.78378e-05 0.000141282 -8.3944e-24)
(-7.34449e-05 0.00017798 3.9509e-24)
(-8.85124e-05 0.000212829 0)
(-0.00010292 0.000245654 3.55172e-24)
(-0.000116531 0.000276288 -3.34179e-24)
(-0.000129184 0.000304576 -3.1132e-24)
(-0.000140696 0.000330374 -2.9204e-24)
(-0.000150866 0.000353547 2.73525e-24)
(-0.000159458 0.000373983 -1.02692e-23)
(-0.000166202 0.00039158 9.58841e-24)
(-0.000170798 0.000406249 4.48489e-24)
(-0.00017291 0.000417918 -8.32535e-24)
(-0.000172167 0.000426528 2.2794e-26)
(-0.00016815 0.000432029 -7.19129e-24)
(-0.000160401 0.000434379 -6.65374e-24)
(-0.000148406 0.000433537 6.17024e-24)
(-0.000131598 0.000429459 5.7258e-24)
(-0.000109352 0.000422089 1.06005e-23)
(-8.09802e-05 0.000411351 -9.77315e-24)
(-4.57257e-05 0.000397144 0)
(-2.75968e-06 0.000379332 -8.31663e-24)
(4.88247e-05 0.000357741 -3.84586e-24)
(0.00011004 0.00033216 -3.50341e-24)
(0.000181887 0.000302303 9.72284e-24)
(0.000265765 0.000267943 -5.94383e-24)
(0.000359223 0.000227176 -5.40836e-24)
(0.000486105 0.000188943 4.96574e-24)
(-9.36751e-06 2.17917e-05 -2.2673e-24)
(-2.70279e-05 6.27922e-05 2.36602e-24)
(-4.41976e-05 0.000102553 -2.24713e-24)
(-6.07764e-05 0.000140883 -2.12973e-24)
(-7.66494e-05 0.000177589 3.99037e-24)
(-9.16864e-05 0.000212481 1.13739e-23)
(-0.000105741 0.000245372 -1.42713e-23)
(-0.000118646 0.000276084 3.34186e-24)
(-0.000130216 0.000304449 -3.13769e-24)
(-0.000140244 0.000330314 1.1821e-23)
(-0.000148491 0.000353539 -1.10661e-23)
(-0.00015469 0.000373989 5.15597e-24)
(-0.000158548 0.00039155 -1.44781e-23)
(-0.000159738 0.000406127 -8.99372e-24)
(-0.000157897 0.000417637 1.67566e-23)
(-0.000152621 0.000426012 3.90302e-24)
(-0.000143466 0.000431194 -1.44854e-23)
(-0.000129938 0.000433129 1.343e-23)
(-0.000111496 0.000431772 -6.21585e-24)
(-8.75423e-05 0.000427069 -5.76372e-24)
(-5.74212e-05 0.000418958 2.21874e-26)
(-2.04137e-05 0.000407357 0)
(2.42667e-05 0.000392161 4.53884e-24)
(7.74792e-05 0.000373226 0)
(0.00014016 0.000350369 7.6791e-24)
(0.000213353 0.000323373 2.04715e-26)
(0.000298076 0.000291931 0)
(0.000395735 0.000255802 1.55762e-26)
(0.000503838 0.000213047 -5.42834e-24)
(0.000647671 0.000173397 4.97529e-24)
(-9.90315e-06 2.15074e-05 0)
(-2.84496e-05 6.20131e-05 -2.36602e-24)
(-4.62943e-05 0.000101345 -6.78595e-24)
(-6.33118e-05 0.000139305 1.49937e-23)
(-7.93627e-05 0.000175691 -1.21622e-23)
(-9.42895e-05 0.000210302 -3.79993e-24)
(-0.000107916 0.000242946 1.07847e-23)
(-0.000120048 0.000273434 -3.39997e-24)
(-0.000130467 0.000301588 3.18916e-24)
(-0.000138933 0.000327241 -5.95986e-24)
(-0.00014518 0.000350242 5.57297e-24)
(-0.000148911 0.000370451 -5.21179e-24)
(-0.000149803 0.000387746 -3.36622e-26)
(-0.000147497 0.000402019 4.4161e-27)
(-0.000141599 0.000413178 4.23164e-24)
(-0.000131675 0.000421148 0)
(-0.000117248 0.000425859 7.25111e-24)
(-9.77956e-05 0.000427255 -6.72414e-24)
(-7.27434e-05 0.000425279 0)
(-4.14643e-05 0.000419875 5.76341e-24)
(-3.27245e-06 0.000410974 9.09362e-27)
(4.25809e-05 0.000398491 -4.93073e-24)
(9.69113e-05 0.000382315 -1.36465e-23)
(0.000160605 0.000362298 -8.39168e-24)
(0.000234626 0.000338251 0)
(0.00032004 0.00030995 -7.08441e-24)
(0.000417883 0.00027707 0)
(0.000529586 0.000239365 -5.97403e-24)
(0.000652488 0.00019475 0)
(0.000813519 0.000154083 -9.87016e-24)
(-1.03629e-05 2.10695e-05 0)
(-2.96584e-05 6.07783e-05 0)
(-4.80533e-05 9.93761e-05 0)
(-6.5396e-05 0.000136658 -8.64596e-24)
(-8.15205e-05 0.000172415 1.22388e-23)
(-9.62402e-05 0.000206441 -7.71563e-24)
(-0.000109348 0.000238534 3.64846e-24)
(-0.000120617 0.0002685 6.82945e-24)
(-0.000129799 0.000296153 0)
(-0.000136619 0.000321319 -6.02957e-24)
(-0.00014078 0.000343836 1.12294e-23)
(-0.000141953 0.000363557 -1.29621e-26)
(-0.000139781 0.000380352 -6.2465e-27)
(-0.000133873 0.000394106 -4.54377e-24)
(-0.000123802 0.00040472 4.25355e-24)
(-0.0001091 0.000412109 0)
(-8.92592e-05 0.0004162 -1.46357e-23)
(-6.37241e-05 0.000416928 1.3551e-23)
(-3.18896e-05 0.000414235 -6.27663e-24)
(6.90289e-06 0.000408057 0)
(5.33696e-05 0.000398323 -5.35662e-24)
(0.000108288 0.000384947 4.94923e-24)
(0.000172501 0.000367813 4.54832e-24)
(0.000246921 0.000346772 4.17983e-24)
(0.000332531 0.000321632 0)
(0.000430422 0.000292162 7.11886e-24)
(0.000541634 0.000258023 0)
(0.000667626 0.000218969 0)
(0.000805484 0.000172682 5.55369e-24)
(0.000983983 0.000131424 9.8462e-24)
(-1.0743e-05 2.04977e-05 0)
(-3.06404e-05 5.91422e-05 0)
(-4.94487e-05 9.67306e-05 0)
(-6.69886e-05 0.000133054 8.7313e-24)
(-8.30663e-05 0.000167898 8.24856e-24)
(-9.74643e-05 0.000201052 -1.16991e-23)
(-0.000109944 0.000232311 3.67706e-24)
(-0.000120244 0.000261474 -6.86298e-24)
(-0.000128082 0.00028835 6.45884e-24)
(-0.00013315 0.00031276 -1.21273e-23)
(-0.000135116 0.000334536 1.71168e-26)
(-0.000133617 0.000353525 1.68722e-26)
(-0.000128262 0.000369591 4.95388e-24)
(-0.000118624 0.000382615 0)
(-0.000104241 0.00039249 -1.27795e-23)
(-8.46117e-05 0.000399128 7.93152e-24)
(-5.91939e-05 0.00040245 7.33003e-24)
(-2.73987e-05 0.00040239 -6.82613e-24)
(1.14115e-05 0.000398884 6.31573e-24)
(5.7927e-05 0.000391868 -5.82099e-24)
(0.000112894 0.00038127 1.07602e-23)
(0.00017712 0.000367002 -4.96728e-24)
(0.000251471 0.000348951 0)
(0.000336882 0.000326967 1.68381e-23)
(0.000434356 0.000300857 -1.55207e-23)
(0.000544996 0.000270388 3.80731e-27)
(0.00066983 0.000235207 -6.54543e-24)
(0.000810359 0.000195073 -5.9971e-24)
(0.000963345 0.000147358 -5.48842e-24)
(0.00115959 0.000105979 0)
(-1.10411e-05 1.98115e-05 0)
(-3.13854e-05 5.71583e-05 0)
(-5.04593e-05 9.3493e-05 4.62771e-24)
(-6.80547e-05 0.000128604 -8.77883e-24)
(-8.39485e-05 0.000162276 -8.32659e-24)
(-9.78915e-05 0.000194295 1.17728e-23)
(-0.000109611 0.000224454 -3.71472e-24)
(-0.000118812 0.000252549 -6.94916e-24)
(-0.000125176 0.000278388 3.27259e-24)
(-0.000128361 0.000301787 0)
(-0.000127997 0.000322576 1.13995e-23)
(-0.000123685 0.000340599 -1.06607e-23)
(-0.000114999 0.000355717 0)
(-0.000101473 0.000367807 0)
(-8.26106e-05 0.000376759 -4.30671e-24)
(-5.78744e-05 0.000382483 -7.9938e-24)
(-2.66859e-05 0.000384899 7.4097e-24)
(1.15782e-05 0.000383938 6.82618e-24)
(5.75893e-05 0.000379537 -1.26605e-23)
(0.00011207 0.000371633 -5.86178e-24)
(0.000175797 0.000360155 5.41025e-24)
(0.000249604 0.000345018 -4.97643e-24)
(0.000334382 0.000326112 4.59319e-24)
(0.000431084 0.000303294 0)
(0.000540724 0.000276369 -3.38789e-27)
(0.000664397 0.000245112 2.14206e-23)
(0.000803124 0.00020915 -6.55503e-24)
(0.000958444 0.000168251 0)
(0.00112672 0.000119403 1.10142e-23)
(0.00134097 7.84394e-05 -9.84598e-24)
(-1.12556e-05 1.90286e-05 0)
(-3.1886e-05 5.48769e-05 -9.90829e-24)
(-5.10673e-05 8.97442e-05 9.3644e-24)
(-6.85627e-05 0.000123419 4.46761e-24)
(-8.41184e-05 0.000155685 -8.41752e-24)
(-9.74528e-05 0.000186329 -3.94056e-24)
(-0.000108259 0.000215144 1.86408e-23)
(-0.000116205 0.000241928 -1.75338e-23)
(-0.000120938 0.000266487 9.88588e-24)
(-0.000122077 0.000288638 6.17779e-24)
(-0.000119215 0.00030821 5.77231e-24)
(-0.000111918 0.000325048 0)
(-9.97169e-05 0.000339012 -9.9845e-24)
(-8.21113e-05 0.000349978 9.31197e-24)
(-5.85652e-05 0.000357837 1.29365e-23)
(-2.85039e-05 0.000362499 -8.07518e-24)
(8.68786e-06 0.000363885 4.05848e-26)
(5.36697e-05 0.000361928 -6.86927e-24)
(0.000107148 0.000356568 6.33842e-24)
(0.000169877 0.000347744 5.86197e-24)
(0.000242665 0.000335392 2.04033e-26)
(0.00032637 0.000319434 0)
(0.000421904 0.000299766 9.2196e-24)
(0.000530232 0.000276252 0)
(0.000652355 0.00024871 7.794e-24)
(0.000789371 0.000216915 1.34788e-26)
(0.000942273 0.000180478 6.55253e-24)
(0.00111263 0.000139182 -8.00752e-27)
(0.00129632 8.95502e-05 -2.19596e-23)
(0.00152877 4.96076e-05 1.48253e-23)
(-1.13859e-05 1.81652e-05 0)
(-3.21356e-05 5.2344e-05 -1.00088e-23)
(-5.12566e-05 8.55584e-05 2.37263e-23)
(-6.84822e-05 0.000117599 -4.48041e-24)
(-8.35279e-05 0.000148252 0)
(-9.60786e-05 0.000177307 3.75252e-26)
(-0.000105792 0.000204558 1.50477e-23)
(-0.0001123 0.000229809 -1.41591e-23)
(-0.000115213 0.000252868 -6.58551e-24)
(-0.000114111 0.000273554 6.24349e-24)
(-0.000108551 0.0002917 -2.31663e-23)
(-9.80555e-05 0.000307153 2.70475e-23)
(-8.21182e-05 0.000319776 -2.01369e-23)
(-6.0199e-05 0.000329447 4.67936e-24)
(-3.17222e-05 0.000336063 -8.68315e-24)
(3.92569e-06 0.000339534 8.06569e-24)
(4.73986e-05 0.000339788 7.52445e-24)
(9.93931e-05 0.000336762 -6.90307e-24)
(0.000160651 0.0003304 6.36905e-24)
(0.00023196 0.000320652 -5.89138e-24)
(0.000314156 0.000307462 1.80484e-26)
(0.00040812 0.00029076 0)
(0.000514778 0.000270456 -9.21823e-24)
(0.000635085 0.00024643 2.04424e-26)
(0.000770042 0.000218506 1.75572e-26)
(0.000920722 0.000186469 7.16554e-24)
(0.00108807 0.000149912 -6.57222e-24)
(0.00127365 0.000108637 1.20374e-23)
(0.00147284 5.86247e-05 1.10284e-23)
(0.00172352 2.0376e-05 0)
(-1.14311e-05 1.72351e-05 9.81443e-24)
(-3.21278e-05 4.95998e-05 -2.54268e-24)
(-5.10102e-05 8.10022e-05 0)
(-6.77819e-05 0.000111237 -4.51804e-24)
(-8.21268e-05 0.000140095 0)
(-9.36962e-05 0.00016737 -4.02164e-24)
(-0.000102112 0.000192865 0)
(-0.00010697 0.000216385 -1.06701e-23)
(-0.000107841 0.000237747 -6.62381e-24)
(-0.000104268 0.000256776 1.8809e-23)
(-9.57676e-05 0.00027331 5.81851e-24)
(-8.18216e-05 0.000287204 -1.63035e-23)
(-6.18835e-05 0.000298323 3.22552e-26)
(-3.5372e-05 0.000306554 2.35549e-23)
(-1.67103e-06 0.000311799 -2.95263e-26)
(3.98734e-05 0.000313978 -1.62688e-23)
(8.99545e-05 0.000313023 -7.49275e-24)
(0.000149307 0.000308881 0)
(0.000218708 0.000301508 6.40499e-24)
(0.000298976 0.000290861 5.91614e-24)
(0.000390975 0.000276899 -1.09456e-23)
(0.000495599 0.000259568 0)
(0.000613772 0.000238797 -9.27215e-24)
(0.000746447 0.00021448 -8.49765e-24)
(0.000894597 0.000186457 -7.80491e-24)
(0.00105925 0.000154521 -7.14512e-24)
(0.00124127 0.000118251 6.58082e-24)
(0.0014422 7.7464e-05 -1.20317e-23)
(0.00165682 2.75219e-05 1.18176e-26)
(0.00192553 -8.30522e-06 9.78659e-24)
(-1.139e-05 1.62498e-05 0)
(-3.18548e-05 4.66782e-05 -2.64269e-26)
(-5.03094e-05 7.61329e-05 -1.45565e-23)
(-6.64274e-05 0.000104415 4.57124e-24)
(-7.98611e-05 0.000131321 0)
(-9.02278e-05 0.000156652 2.03979e-23)
(-9.71134e-05 0.00018022 -3.45416e-23)
(-0.000100077 0.00020184 7.21904e-24)
(-9.86512e-05 0.000221336 -1.3472e-23)
(-9.23401e-05 0.000238542 6.35412e-24)
(-8.06173e-05 0.000253307 0)
(-6.29258e-05 0.000265491 0)
(-3.86769e-05 0.000274972 -5.12837e-24)
(-7.24766e-06 0.000281646 4.76478e-24)
(3.20198e-05 0.000285426 0)
(7.98204e-05 0.000286239 8.14044e-24)
(0.000136887 0.000284031 0)
(0.000203993 0.000278761 1.39813e-23)
(0.000281949 0.000270397 -6.46528e-24)
(0.000371605 0.000258914 0)
(0.000473837 0.000244286 -5.51891e-24)
(0.000589548 0.000226484 0)
(0.000719661 0.000205454 1.85686e-23)
(0.000865105 0.000181113 8.54298e-24)
(0.0010268 0.000153321 7.84072e-24)
(0.00120569 0.000121884 0)
(0.00140252 8.63539e-05 1.48704e-26)
(0.00161877 4.65668e-05 6.03287e-24)
(0.00184862 -2.81005e-06 -1.10291e-23)
(0.00213478 -3.54655e-05 -9.78105e-24)
(-1.12604e-05 1.5218e-05 1.00221e-23)
(-3.13064e-05 4.36066e-05 -2.62335e-24)
(-4.91315e-05 7.0998e-05 -5.06518e-26)
(-6.43794e-05 9.72013e-05 1.38638e-23)
(-7.66706e-05 0.000122021 -1.31502e-23)
(-8.55886e-05 0.00014527 -4.09931e-24)
(-9.06836e-05 0.000166769 -3.69717e-26)
(-9.14775e-05 0.000186344 -3.37719e-26)
(-8.74643e-05 0.000203832 0)
(-7.81081e-05 0.00021908 -1.27053e-23)
(-6.28414e-05 0.000231946 1.77916e-23)
(-4.10662e-05 0.000242305 -1.10885e-23)
(-1.21512e-05 0.000250047 1.02971e-23)
(2.45684e-05 0.00025508 -4.76512e-24)
(6.97929e-05 0.00025733 0)
(0.000124258 0.000256741 8.24664e-24)
(0.000188738 0.000253272 -3.96961e-26)
(0.00026404 0.000246898 -7.00241e-24)
(0.000351008 0.000237605 6.47259e-24)
(0.00045051 0.000225387 -5.99168e-24)
(0.000563437 0.000210244 2.20251e-23)
(0.000690694 0.000192167 -2.02652e-23)
(0.000833182 0.000171132 9.33056e-24)
(0.000991782 0.000147082 -3.42128e-23)
(0.00116733 0.000119902 -1.56699e-23)
(0.00136065 8.94098e-05 2.36661e-26)
(0.00157232 5.51276e-05 1.32083e-23)
(0.00180365 1.68876e-05 1.80913e-23)
(0.00204833 -3.13911e-05 -5.52521e-24)
(0.00235078 -6.01553e-05 0)
(-1.10387e-05 1.41461e-05 -1.013e-23)
(-3.0469e-05 4.04058e-05 -5.58619e-26)
(-4.74486e-05 6.56355e-05 4.92251e-24)
(-6.15918e-05 8.96538e-05 4.64473e-24)
(-7.24878e-05 0.000112276 -2.20965e-23)
(-7.96859e-05 0.000133326 3.32808e-23)
(-8.27009e-05 0.000152639 -2.34601e-23)
(-8.10178e-05 0.000170054 3.66813e-23)
(-7.40917e-05 0.000185423 -1.37616e-23)
(-6.13462e-05 0.000198607 -1.92661e-23)
(-4.21738e-05 0.000209478 1.20277e-23)
(-1.59341e-05 0.000217928 4.56565e-26)
(1.80459e-05 0.000223864 5.23179e-24)
(6.04738e-05 0.000227209 0)
(0.000112092 0.000227906 8.91624e-24)
(0.000173676 0.000225915 -8.23813e-24)
(0.000246038 0.000221217 1.53067e-23)
(0.00033002 0.000213803 -7.04721e-24)
(0.000426485 0.000203684 -6.505e-24)
(0.000536323 0.000190878 -5.99605e-24)
(0.000660429 0.000175409 -1.65267e-23)
(0.000799696 0.000157299 2.03406e-23)
(0.000954982 0.000136557 9.32589e-24)
(0.00112709 0.000113158 -6.35731e-26)
(0.00131674 8.70188e-05 -2.70414e-26)
(0.00152457 5.79736e-05 0)
(0.00175092 2.55042e-05 2.75208e-26)
(0.00199686 -1.06087e-05 -2.41394e-23)
(0.00225571 -5.72296e-05 5.42028e-24)
(0.00257252 -8.15054e-05 -9.96135e-24)
(-1.07199e-05 1.30381e-05 9.23547e-27)
(-2.93245e-05 3.70909e-05 1.58122e-23)
(-4.52267e-05 6.00745e-05 0)
(-5.80114e-05 8.1819e-05 9.46026e-24)