/*--------------------------------*- C++ -*----------------------------------*\
| =========                 |                                                 |
| \\      /  F ield         | foam-extend: Open Source CFD                    |
|  \\    /   O peration     | Version:     4.0                                |
|   \\  /    A nd           | Web:         http://www.foam-extend.org         |
|    \\/     M anipulation  |                                                 |
\*---------------------------------------------------------------------------*/
FoamFile
{
    version     2.0;
    format      ascii;
    class       volScalarField;
    location    "105";
    object      p;
}
// * * * * * * * * * * * * * * * * * * * * * * * * * * * * * * * * * * * * * //

dimensions      [0 2 -2 0 0 0 0];

internalField   nonuniform List<scalar> 
36000
(
-7.24243e-06
-7.26914e-06
-7.29754e-06
-7.32393e-06
-7.34866e-06
-7.37214e-06
-7.3944e-06
-7.41535e-06
-7.43495e-06
-7.45315e-06
-7.46997e-06
-7.4854e-06
-7.49947e-06
-7.51218e-06
-7.52358e-06
-7.53369e-06
-7.54253e-06
-7.5501e-06
-7.55638e-06
-7.56136e-06
-7.56495e-06
-7.56707e-06
-7.56757e-06
-7.56625e-06
-7.56286e-06
-7.55706e-06
-7.54847e-06
-7.53659e-06
-7.52072e-06
-7.50002e-06
-7.25022e-06
-7.27663e-06
-7.30471e-06
-7.33081e-06
-7.35527e-06
-7.3785e-06
-7.40052e-06
-7.42124e-06
-7.44062e-06
-7.45863e-06
-7.47526e-06
-7.49052e-06
-7.50443e-06
-7.517e-06
-7.52827e-06
-7.53826e-06
-7.54698e-06
-7.55445e-06
-7.56066e-06
-7.56557e-06
-7.56911e-06
-7.57119e-06
-7.57167e-06
-7.57035e-06
-7.56698e-06
-7.56122e-06
-7.55271e-06
-7.54099e-06
-7.5252e-06
-7.50361e-06
-7.26564e-06
-7.29145e-06
-7.3189e-06
-7.34443e-06
-7.36835e-06
-7.39107e-06
-7.41262e-06
-7.43289e-06
-7.45185e-06
-7.46947e-06
-7.48573e-06
-7.50065e-06
-7.51423e-06
-7.52651e-06
-7.53751e-06
-7.54726e-06
-7.55576e-06
-7.56304e-06
-7.56907e-06
-7.57384e-06
-7.57727e-06
-7.57927e-06
-7.57971e-06
-7.57838e-06
-7.57503e-06
-7.56935e-06
-7.56099e-06
-7.54955e-06
-7.53393e-06
-7.51056e-06
-7.28846e-06
-7.3134e-06
-7.33993e-06
-7.3646e-06
-7.38774e-06
-7.40971e-06
-7.43055e-06
-7.45016e-06
-7.46849e-06
-7.48552e-06
-7.50123e-06
-7.51563e-06
-7.52874e-06
-7.54058e-06
-7.55117e-06
-7.56055e-06
-7.56872e-06
-7.57569e-06
-7.58147e-06
-7.58601e-06
-7.58926e-06
-7.59113e-06
-7.59148e-06
-7.59011e-06
-7.58679e-06
-7.58119e-06
-7.57301e-06
-7.56196e-06
-7.54659e-06
-7.52059e-06
-7.31838e-06
-7.34218e-06
-7.36751e-06
-7.39108e-06
-7.41318e-06
-7.43419e-06
-7.4541e-06
-7.47283e-06
-7.49034e-06
-7.50659e-06
-7.52157e-06
-7.53529e-06
-7.54777e-06
-7.55901e-06
-7.56905e-06
-7.57792e-06
-7.58563e-06
-7.59219e-06
-7.5976e-06
-7.60182e-06
-7.60481e-06
-7.60647e-06
-7.60668e-06
-7.60524e-06
-7.60191e-06
-7.59638e-06
-7.5884e-06
-7.57777e-06
-7.56277e-06
-7.53323e-06
-7.35499e-06
-7.37741e-06
-7.40129e-06
-7.42352e-06
-7.44438e-06
-7.46419e-06
-7.48297e-06
-7.50063e-06
-7.51712e-06
-7.53242e-06
-7.5465e-06
-7.55937e-06
-7.57104e-06
-7.58154e-06
-7.59089e-06
-7.59911e-06
-7.60623e-06
-7.61225e-06
-7.61717e-06
-7.62097e-06
-7.6236e-06
-7.62497e-06
-7.62494e-06
-7.62335e-06
-7.61996e-06
-7.61446e-06
-7.60666e-06
-7.59648e-06
-7.58198e-06
-7.54776e-06
-7.3978e-06
-7.41865e-06
-7.44086e-06
-7.46154e-06
-7.48095e-06
-7.49938e-06
-7.51684e-06
-7.53325e-06
-7.54855e-06
-7.56271e-06
-7.57571e-06
-7.58757e-06
-7.59829e-06
-7.60788e-06
-7.61638e-06
-7.62381e-06
-7.63019e-06
-7.63554e-06
-7.63984e-06
-7.64309e-06
-7.64524e-06
-7.6462e-06
-7.64584e-06
-7.64401e-06
-7.64046e-06
-7.63492e-06
-7.62724e-06
-7.61752e-06
-7.60367e-06
-7.56336e-06
-7.4463e-06
-7.4654e-06
-7.48575e-06
-7.5047e-06
-7.52249e-06
-7.53937e-06
-7.55534e-06
-7.57032e-06
-7.58426e-06
-7.59712e-06
-7.60889e-06
-7.61957e-06
-7.62917e-06
-7.6377e-06
-7.6452e-06
-7.65168e-06
-7.65717e-06
-7.66169e-06
-7.66523e-06
-7.66779e-06
-7.66931e-06
-7.66973e-06
-7.66891e-06
-7.6667e-06
-7.66288e-06
-7.65718e-06
-7.64952e-06
-7.64014e-06
-7.6272e-06
-7.57917e-06
-7.49992e-06
-7.51712e-06
-7.53546e-06
-7.55254e-06
-7.56855e-06
-7.58373e-06
-7.59807e-06
-7.61147e-06
-7.6239e-06
-7.6353e-06
-7.64568e-06
-7.65503e-06
-7.66334e-06
-7.67065e-06
-7.67698e-06
-7.68235e-06
-7.68679e-06
-7.69032e-06
-7.69294e-06
-7.69465e-06
-7.69539e-06
-7.69509e-06
-7.69364e-06
-7.69091e-06
-7.68667e-06
-7.68067e-06
-7.67289e-06
-7.66362e-06
-7.65202e-06
-7.5939e-06
-7.55805e-06
-7.57327e-06
-7.58948e-06
-7.60456e-06
-7.61869e-06
-7.63205e-06
-7.64461e-06
-7.65631e-06
-7.66708e-06
-7.67689e-06
-7.68573e-06
-7.69358e-06
-7.70046e-06
-7.70638e-06
-7.71137e-06
-7.71546e-06
-7.71868e-06
-7.72105e-06
-7.72258e-06
-7.72325e-06
-7.72302e-06
-7.72183e-06
-7.71957e-06
-7.71614e-06
-7.71132e-06
-7.70481e-06
-7.69664e-06
-7.68726e-06
-7.6784e-06
-7.60466e-06
-7.62013e-06
-7.63329e-06
-7.64729e-06
-7.6603e-06
-7.67245e-06
-7.68388e-06
-7.69457e-06
-7.70444e-06
-7.71343e-06
-7.72152e-06
-7.72867e-06
-7.73488e-06
-7.74016e-06
-7.74454e-06
-7.74803e-06
-7.75067e-06
-7.75249e-06
-7.75351e-06
-7.75375e-06
-7.75319e-06
-7.75179e-06
-7.74951e-06
-7.74626e-06
-7.74192e-06
-7.7363e-06
-7.72902e-06
-7.72002e-06
-7.7102e-06
-7.70871e-06
-7.60708e-06
-7.68559e-06
-7.69665e-06
-7.70841e-06
-7.71929e-06
-7.72939e-06
-7.73882e-06
-7.74755e-06
-7.7555e-06
-7.7626e-06
-7.76884e-06
-7.77417e-06
-7.7786e-06
-7.78214e-06
-7.7848e-06
-7.78662e-06
-7.78764e-06
-7.78788e-06
-7.78736e-06
-7.7861e-06
-7.78411e-06
-7.78133e-06
-7.77774e-06
-7.77326e-06
-7.76779e-06
-7.76114e-06
-7.7529e-06
-7.74274e-06
-7.73128e-06
-7.74391e-06
-7.60476e-06
-7.7539e-06
-7.76288e-06
-7.77238e-06
-7.78111e-06
-7.78912e-06
-7.7965e-06
-7.80319e-06
-7.80913e-06
-7.81425e-06
-7.81853e-06
-7.82192e-06
-7.82444e-06
-7.82608e-06
-7.82687e-06
-7.82687e-06
-7.82608e-06
-7.82455e-06
-7.82229e-06
-7.81932e-06
-7.81566e-06
-7.81128e-06
-7.80615e-06
-7.80023e-06
-7.79339e-06
-7.78548e-06
-7.77611e-06
-7.76515e-06
-7.75253e-06
-7.75631e-06
-7.63013e-06
-7.82461e-06
-7.83152e-06
-7.83878e-06
-7.84535e-06
-7.85127e-06
-7.85655e-06
-7.86117e-06
-7.86503e-06
-7.86809e-06
-7.87031e-06
-7.87165e-06
-7.87211e-06
-7.87173e-06
-7.87052e-06
-7.86852e-06
-7.86574e-06
-7.86223e-06
-7.85801e-06
-7.85311e-06
-7.84756e-06
-7.84136e-06
-7.83449e-06
-7.82691e-06
-7.81849e-06
-7.80908e-06
-7.79835e-06
-7.78643e-06
-7.77357e-06
-7.76923e-06
-7.6493e-06
-7.8973e-06
-7.9022e-06
-7.90727e-06
-7.91171e-06
-7.91552e-06
-7.91871e-06
-7.92121e-06
-7.92294e-06
-7.92386e-06
-7.92393e-06
-7.92312e-06
-7.92144e-06
-7.91891e-06
-7.91554e-06
-7.91135e-06
-7.90639e-06
-7.90068e-06
-7.89429e-06
-7.88726e-06
-7.87963e-06
-7.87141e-06
-7.86259e-06
-7.85311e-06
-7.8429e-06
-7.83179e-06
-7.81946e-06
-7.80628e-06
-7.7926e-06
-7.78412e-06
-7.66105e-06
-7.97166e-06
-7.97463e-06
-7.97756e-06
-7.97991e-06
-7.98165e-06
-7.98274e-06
-7.9831e-06
-7.98267e-06
-7.9814e-06
-7.97924e-06
-7.9762e-06
-7.97227e-06
-7.96744e-06
-7.96172e-06
-7.95516e-06
-7.94782e-06
-7.93976e-06
-7.93103e-06
-7.92169e-06
-7.91177e-06
-7.90132e-06
-7.89032e-06
-7.87876e-06
-7.86654e-06
-7.85351e-06
-7.83938e-06
-7.82463e-06
-7.80971e-06
-7.7987e-06
-7.66804e-06
-8.04744e-06
-8.04856e-06
-8.04943e-06
-8.04976e-06
-8.04945e-06
-8.04846e-06
-8.04669e-06
-8.04408e-06
-8.04057e-06
-8.03612e-06
-8.03074e-06
-8.0244e-06
-8.01711e-06
-8.00891e-06
-7.99986e-06
-7.99001e-06
-7.97942e-06
-7.96817e-06
-7.95632e-06
-7.94393e-06
-7.93105e-06
-7.91768e-06
-7.90382e-06
-7.8894e-06
-7.87428e-06
-7.85816e-06
-7.84163e-06
-7.82516e-06
-7.81222e-06
-7.67129e-06
-8.12449e-06
-8.12385e-06
-8.12275e-06
-8.1211e-06
-8.11879e-06
-8.11572e-06
-8.11181e-06
-8.10699e-06
-8.1012e-06
-8.09441e-06
-8.08659e-06
-8.07775e-06
-8.06792e-06
-8.05713e-06
-8.04545e-06
-8.03293e-06
-8.01966e-06
-8.00571e-06
-7.99118e-06
-7.97613e-06
-7.96063e-06
-7.94472e-06
-7.92839e-06
-7.9116e-06
-7.8942e-06
-7.87593e-06
-7.85744e-06
-7.83921e-06
-7.82471e-06
-7.67118e-06
-8.20276e-06
-8.20045e-06
-8.19747e-06
-8.19391e-06
-8.18963e-06
-8.18451e-06
-8.17845e-06
-8.1714e-06
-8.16329e-06
-8.15409e-06
-8.14378e-06
-8.13237e-06
-8.11989e-06
-8.10641e-06
-8.09196e-06
-8.07663e-06
-8.06052e-06
-8.04372e-06
-8.02634e-06
-8.00848e-06
-7.9902e-06
-7.97158e-06
-7.95262e-06
-7.9333e-06
-7.9135e-06
-7.89293e-06
-7.87233e-06
-7.85217e-06
-7.83641e-06
-7.66801e-06
-8.28229e-06
-8.27841e-06
-8.27363e-06
-8.26822e-06
-8.26201e-06
-8.25486e-06
-8.24667e-06
-8.23736e-06
-8.22689e-06
-8.21523e-06
-8.20237e-06
-8.18831e-06
-8.1731e-06
-8.1568e-06
-8.13947e-06
-8.1212e-06
-8.10211e-06
-8.08233e-06
-8.06196e-06
-8.04113e-06
-8.01994e-06
-7.99846e-06
-7.97674e-06
-7.95477e-06
-7.93244e-06
-7.90945e-06
-7.88664e-06
-7.86441e-06
-7.8476e-06
-7.66214e-06
-8.36323e-06
-8.35785e-06
-8.35134e-06
-8.34413e-06
-8.33603e-06
-8.32687e-06
-8.31653e-06
-8.30496e-06
-8.29211e-06
-8.27794e-06
-8.26246e-06
-8.24568e-06
-8.22765e-06
-8.20843e-06
-8.1881e-06
-8.16679e-06
-8.14461e-06
-8.12172e-06
-8.09824e-06
-8.07432e-06
-8.05009e-06
-8.02564e-06
-8.00105e-06
-7.97632e-06
-7.95136e-06
-7.92586e-06
-7.90072e-06
-7.87629e-06
-7.85863e-06
-7.65393e-06
-8.44577e-06
-8.43896e-06
-8.43078e-06
-8.42181e-06
-8.41184e-06
-8.40067e-06
-8.38819e-06
-8.37433e-06
-8.35906e-06
-8.34234e-06
-8.32419e-06
-8.30462e-06
-8.28369e-06
-8.26146e-06
-8.23805e-06
-8.21359e-06
-8.18822e-06
-8.16211e-06
-8.13542e-06
-8.10831e-06
-8.08094e-06
-8.05343e-06
-8.02588e-06
-7.99832e-06
-7.97063e-06
-7.94251e-06
-7.91494e-06
-7.8882e-06
-7.86984e-06
-7.64384e-06
-8.53019e-06
-8.52199e-06
-8.51218e-06
-8.50147e-06
-8.48965e-06
-8.47647e-06
-8.46183e-06
-8.44566e-06
-8.42793e-06
-8.40862e-06
-8.38774e-06
-8.36532e-06
-8.34141e-06
-8.3161e-06
-8.28953e-06
-8.26184e-06
-8.2332e-06
-8.2038e-06
-8.17381e-06
-8.14343e-06
-8.11284e-06
-8.08219e-06
-8.05161e-06
-8.02112e-06
-7.99062e-06
-7.95978e-06
-7.92967e-06
-7.90046e-06
-7.88147e-06
-7.63241e-06
-8.61682e-06
-8.60726e-06
-8.59582e-06
-8.58339e-06
-8.5697e-06
-8.5545e-06
-8.53768e-06
-8.51917e-06
-8.49895e-06
-8.477e-06
-8.45334e-06
-8.428e-06
-8.40104e-06
-8.3726e-06
-8.3428e-06
-8.31182e-06
-8.27984e-06
-8.24706e-06
-8.21371e-06
-8.18e-06
-8.14614e-06
-8.1123e-06
-8.07861e-06
-8.04511e-06
-8.01171e-06
-7.97802e-06
-7.94521e-06
-7.91332e-06
-7.89358e-06
-7.62039e-06
-8.70604e-06
-8.6951e-06
-8.68204e-06
-8.66786e-06
-8.65229e-06
-8.63503e-06
-8.61599e-06
-8.59511e-06
-8.57235e-06
-8.54772e-06
-8.52122e-06
-8.4929e-06
-8.46286e-06
-8.43122e-06
-8.39814e-06
-8.3638e-06
-8.32843e-06
-8.29224e-06
-8.25548e-06
-8.2184e-06
-8.18122e-06
-8.14412e-06
-8.10725e-06
-8.07066e-06
-8.03425e-06
-7.99757e-06
-7.96182e-06
-7.92695e-06
-7.906e-06
-7.60886e-06
-8.79822e-06
-8.78589e-06
-8.77116e-06
-8.75521e-06
-8.7377e-06
-8.71836e-06
-8.69705e-06
-8.67374e-06
-8.6484e-06
-8.62103e-06
-8.59163e-06
-8.56029e-06
-8.52711e-06
-8.49223e-06
-8.45582e-06
-8.4181e-06
-8.37929e-06
-8.33966e-06
-8.29947e-06
-8.25898e-06
-8.21842e-06
-8.17801e-06
-8.1379e-06
-8.09813e-06
-8.05856e-06
-8.0187e-06
-7.97969e-06
-7.94147e-06
-7.91819e-06
-7.5995e-06
-8.89379e-06
-8.88e-06
-8.86356e-06
-8.84576e-06
-8.82627e-06
-8.80477e-06
-8.78115e-06
-8.75536e-06
-8.72737e-06
-8.69719e-06
-8.66486e-06
-8.63045e-06
-8.59409e-06
-8.55593e-06
-8.51616e-06
-8.47502e-06
-8.43276e-06
-8.38966e-06
-8.34601e-06
-8.30206e-06
-8.25809e-06
-8.21432e-06
-8.17089e-06
-8.12783e-06
-8.08495e-06
-8.04166e-06
-7.99897e-06
-7.95677e-06
-7.92817e-06
-7.59291e-06
-8.99315e-06
-8.97782e-06
-8.95957e-06
-8.93985e-06
-8.91831e-06
-8.89458e-06
-8.86857e-06
-8.84023e-06
-8.80953e-06
-8.7765e-06
-8.74117e-06
-8.70365e-06
-8.66407e-06
-8.62259e-06
-8.57944e-06
-8.53487e-06
-8.48914e-06
-8.44255e-06
-8.3954e-06
-8.34797e-06
-8.30055e-06
-8.25336e-06
-8.20653e-06
-8.16007e-06
-8.11371e-06
-8.06676e-06
-8.01981e-06
-7.97206e-06
-7.92874e-06
-7.58266e-06
-9.09667e-06
-9.07972e-06
-9.05955e-06
-9.03781e-06
-9.01411e-06
-8.98807e-06
-8.95959e-06
-8.92862e-06
-8.89514e-06
-8.85919e-06
-8.82083e-06
-8.78016e-06
-8.73732e-06
-8.69251e-06
-8.64596e-06
-8.59793e-06
-8.54871e-06
-8.49861e-06
-8.44794e-06
-8.39701e-06
-8.34609e-06
-8.29541e-06
-8.2451e-06
-8.19513e-06
-8.14516e-06
-8.09446e-06
-8.04266e-06
-7.98632e-06
-7.9086e-06
-7.56609e-06
-9.20472e-06
-9.18601e-06
-9.1638e-06
-9.13992e-06
-9.11396e-06
-9.08551e-06
-9.05447e-06
-9.02078e-06
-8.98446e-06
-8.94554e-06
-8.90408e-06
-8.86021e-06
-8.81409e-06
-8.76592e-06
-8.71595e-06
-8.66445e-06
-8.61172e-06
-8.55809e-06
-8.50388e-06
-8.4494e-06
-8.39493e-06
-8.34069e-06
-8.28681e-06
-8.23326e-06
-8.17974e-06
-8.1257e-06
-8.06939e-06
-8.00489e-06
-7.88778e-06
-7.6637e-06
-9.3176e-06
-9.29699e-06
-9.27259e-06
-9.24644e-06
-9.2181e-06
-9.18714e-06
-9.15343e-06
-9.11695e-06
-9.0777e-06
-9.03574e-06
-8.99115e-06
-8.94404e-06
-8.89461e-06
-8.84306e-06
-8.78964e-06
-8.73465e-06
-8.6784e-06
-8.62122e-06
-8.56343e-06
-8.50535e-06
-8.44725e-06
-8.38934e-06
-8.33177e-06
-8.27456e-06
-8.21767e-06
-8.16126e-06
-8.10359e-06
-8.04581e-06
-7.9566e-06
-8.22173e-06
-9.43556e-06
-9.4129e-06
-9.38616e-06
-9.3576e-06
-9.32675e-06
-9.29315e-06
-9.25668e-06
-9.21731e-06
-9.17507e-06
-9.13001e-06
-9.08222e-06
-9.03184e-06
-8.97906e-06
-8.92409e-06
-8.86721e-06
-8.80871e-06
-8.74892e-06
-8.68815e-06
-8.62674e-06
-8.56497e-06
-8.50312e-06
-8.44136e-06
-8.37983e-06
-8.3186e-06
-8.25774e-06
-8.19777e-06
-8.13727e-06
-8.08273e-06
-8.00747e-06
-8.34126e-06
-9.55879e-06
-9.53392e-06
-9.50467e-06
-9.47355e-06
-9.44007e-06
-9.40371e-06
-9.36436e-06
-9.32201e-06
-9.2767e-06
-9.22848e-06
-9.17744e-06
-9.12375e-06
-9.06758e-06
-9.00918e-06
-8.94882e-06
-8.88679e-06
-8.82341e-06
-8.75901e-06
-8.6939e-06
-8.62833e-06
-8.56254e-06
-8.49669e-06
-8.43085e-06
-8.36504e-06
-8.29931e-06
-8.23416e-06
-8.1681e-06
-8.10877e-06
-8.02166e-06
-8.29989e-06
-9.68742e-06
-9.66017e-06
-9.62823e-06
-9.59441e-06
-9.55815e-06
-9.51892e-06
-9.47659e-06
-9.43118e-06
-9.38271e-06
-9.33126e-06
-9.27693e-06
-9.21987e-06
-9.16029e-06
-9.09843e-06
-9.03455e-06
-8.96896e-06
-8.90196e-06
-8.83385e-06
-8.76492e-06
-8.6954e-06
-8.62546e-06
-8.55519e-06
-8.4846e-06
-8.4136e-06
-8.34206e-06
-8.27036e-06
-8.19655e-06
-8.12748e-06
-8.02461e-06
-8.25191e-06
-9.82148e-06
-9.79169e-06
-9.7569e-06
-9.72021e-06
-9.68104e-06
-9.63882e-06
-9.59342e-06
-9.54485e-06
-9.49315e-06
-9.43841e-06
-9.38073e-06
-9.32027e-06
-9.25724e-06
-9.19188e-06
-9.12446e-06
-9.05526e-06
-8.98456e-06
-8.91265e-06
-8.83977e-06
-8.76609e-06
-8.69172e-06
-8.61667e-06
-8.54082e-06
-8.46392e-06
-8.38574e-06
-8.30625e-06
-8.22308e-06
-8.14199e-06
-8.02381e-06
-8.20559e-06
-9.96094e-06
-9.92845e-06
-9.89063e-06
-9.85094e-06
-9.80873e-06
-9.76341e-06
-9.71483e-06
-9.66301e-06
-9.60802e-06
-9.54993e-06
-9.48886e-06
-9.42496e-06
-9.35845e-06
-9.28955e-06
-9.21853e-06
-9.14565e-06
-9.07118e-06
-8.99534e-06
-8.91832e-06
-8.84023e-06
-8.7611e-06
-8.68082e-06
-8.59914e-06
-8.51569e-06
-8.42995e-06
-8.34158e-06
-8.24781e-06
-8.15355e-06
-8.02057e-06
-8.15835e-06
-1.01057e-05
-1.00703e-05
-1.00293e-05
-9.98649e-06
-9.94113e-06
-9.8926e-06
-9.84075e-06
-9.78562e-06
-9.72727e-06
-9.66578e-06
-9.60126e-06
-9.53389e-06
-9.46385e-06
-9.39138e-06
-9.3167e-06
-9.24006e-06
-9.16168e-06
-9.08174e-06
-9.00036e-06
-8.91758e-06
-8.8333e-06
-8.74729e-06
-8.65917e-06
-8.56843e-06
-8.47424e-06
-8.37597e-06
-8.27078e-06
-8.16249e-06
-8.01519e-06
-8.11033e-06
-1.02555e-05
-1.02172e-05
-1.01728e-05
-1.01267e-05
-1.00781e-05
-1.00262e-05
-9.97105e-06
-9.91254e-06
-9.85077e-06
-9.78583e-06
-9.71784e-06
-9.64695e-06
-9.57334e-06
-9.49723e-06
-9.41882e-06
-9.33831e-06
-9.25587e-06
-9.17163e-06
-9.08563e-06
-8.99779e-06
-8.90791e-06
-8.81562e-06
-8.72044e-06
-8.62161e-06
-8.51814e-06
-8.40914e-06
-8.29167e-06
-8.16892e-06
-8.00775e-06
-8.06212e-06
-1.04102e-05
-1.03687e-05
-1.03209e-05
-1.02714e-05
-1.02194e-05
-1.01641e-05
-1.01055e-05
-1.00436e-05
-9.97836e-06
-9.90993e-06
-9.83842e-06
-9.76397e-06
-9.68674e-06
-9.60692e-06
-9.52468e-06
-9.44016e-06
-9.35349e-06
-9.2647e-06
-9.17374e-06
-9.08044e-06
-8.98444e-06
-8.88531e-06
-8.78233e-06
-8.67463e-06
-8.56103e-06
-8.44058e-06
-8.31017e-06
-8.17263e-06
-7.99797e-06
-8.0137e-06
-1.05693e-05
-1.05245e-05
-1.04731e-05
-1.04201e-05
-1.03647e-05
-1.0306e-05
-1.02439e-05
-1.01785e-05
-1.01098e-05
-1.00378e-05
-9.96276e-06
-9.88471e-06
-9.8038e-06
-9.72019e-06
-9.63399e-06
-9.54531e-06
-9.45417e-06
-9.36054e-06
-9.26425e-06
-9.16501e-06
-9.06237e-06
-8.95571e-06
-8.84419e-06
-8.72678e-06
-8.60233e-06
-8.46958e-06
-8.32575e-06
-8.17321e-06
-7.98535e-06
-7.96463e-06
-1.07323e-05
-1.06842e-05
-1.06291e-05
-1.05726e-05
-1.05136e-05
-1.04515e-05
-1.03859e-05
-1.03169e-05
-1.02447e-05
-1.01692e-05
-1.00906e-05
-1.00088e-05
-9.92419e-06
-9.83668e-06
-9.74639e-06
-9.65334e-06
-9.55748e-06
-9.45866e-06
-9.35661e-06
-9.25091e-06
-9.14104e-06
-9.02615e-06
-8.90533e-06
-8.77743e-06
-8.64126e-06
-8.49558e-06
-8.33784e-06
-8.17015e-06
-7.96927e-06
-7.91428e-06
-1.08988e-05
-1.08472e-05
-1.07884e-05
-1.07282e-05
-1.06658e-05
-1.06001e-05
-1.0531e-05
-1.04585e-05
-1.03827e-05
-1.03037e-05
-1.02214e-05
-1.0136e-05
-1.00475e-05
-9.95599e-06
-9.86144e-06
-9.76378e-06
-9.66289e-06
-9.5585e-06
-9.4502e-06
-9.33751e-06
-9.21968e-06
-9.09584e-06
-8.9649e-06
-8.82579e-06
-8.67714e-06
-8.51789e-06
-8.34584e-06
-8.16289e-06
-7.94909e-06
-7.86196e-06
-1.10681e-05
-1.1013e-05
-1.09504e-05
-1.08866e-05
-1.08205e-05
-1.07513e-05
-1.06787e-05
-1.06027e-05
-1.05234e-05
-1.04407e-05
-1.03548e-05
-1.02657e-05
-1.01733e-05
-1.00776e-05
-9.97858e-06
-9.87605e-06
-9.76978e-06
-9.65936e-06
-9.54432e-06
-9.42398e-06
-9.2975e-06
-9.16389e-06
-9.02212e-06
-8.87093e-06
-8.70914e-06
-8.5358e-06
-8.3491e-06
-8.15083e-06
-7.92418e-06
-7.80682e-06
-1.12395e-05
-1.11809e-05
-1.11144e-05
-1.10469e-05
-1.09773e-05
-1.09046e-05
-1.08285e-05
-1.0749e-05
-1.06661e-05
-1.05799e-05
-1.04903e-05
-1.03973e-05
-1.03009e-05
-1.02009e-05
-1.00972e-05
-9.98948e-06
-9.87742e-06
-9.76051e-06
-9.63814e-06
-9.50949e-06
-9.37364e-06
-9.2295e-06
-9.07603e-06
-8.91205e-06
-8.73649e-06
-8.5486e-06
-8.347e-06
-8.13342e-06
-7.89401e-06
-7.74805e-06
-1.14122e-05
-1.135e-05
-1.12797e-05
-1.12086e-05
-1.11355e-05
-1.10592e-05
-1.09796e-05
-1.08966e-05
-1.08103e-05
-1.07205e-05
-1.06272e-05
-1.05303e-05
-1.04297e-05
-1.03252e-05
-1.02165e-05
-1.01033e-05
-9.98501e-06
-9.8611e-06
-9.73076e-06
-9.5931e-06
-9.44708e-06
-9.29169e-06
-9.12574e-06
-8.94826e-06
-8.75837e-06
-8.55556e-06
-8.33891e-06
-8.1102e-06
-7.85829e-06
-7.68548e-06
-1.15853e-05
-1.15196e-05
-1.14454e-05
-1.13707e-05
-1.12941e-05
-1.12144e-05
-1.11314e-05
-1.1045e-05
-1.09551e-05
-1.08618e-05
-1.07647e-05
-1.06639e-05
-1.0559e-05
-1.04497e-05
-1.03358e-05
-1.02166e-05
-1.00917e-05
-9.96015e-06
-9.82118e-06
-9.67376e-06
-9.51686e-06
-9.34937e-06
-9.17026e-06
-8.97867e-06
-8.77399e-06
-8.55599e-06
-8.32425e-06
-8.08067e-06
-7.81662e-06
-7.61924e-06
-1.17578e-05
-1.16885e-05
-1.16107e-05
-1.15323e-05
-1.14524e-05
-1.13693e-05
-1.1283e-05
-1.11932e-05
-1.10999e-05
-1.10029e-05
-1.09021e-05
-1.07971e-05
-1.06878e-05
-1.05736e-05
-1.0454e-05
-1.03285e-05
-1.01964e-05
-1.00567e-05
-9.90837e-06
-9.75046e-06
-9.58189e-06
-9.40157e-06
-9.20862e-06
-9.00239e-06
-8.78254e-06
-8.54918e-06
-8.3024e-06
-8.04426e-06
-7.76837e-06
-7.54879e-06
-1.19286e-05
-1.18559e-05
-1.17743e-05
-1.16926e-05
-1.16093e-05
-1.1523e-05
-1.14334e-05
-1.13403e-05
-1.12435e-05
-1.1143e-05
-1.10383e-05
-1.09292e-05
-1.08152e-05
-1.06957e-05
-1.05702e-05
-1.0438e-05
-1.02981e-05
-1.01495e-05
-9.99116e-06
-9.82207e-06
-9.64106e-06
-9.44723e-06
-9.23986e-06
-9.01853e-06
-8.78324e-06
-8.53447e-06
-8.27279e-06
-8.00048e-06
-7.71301e-06
-7.47332e-06
-1.20966e-05
-1.20205e-05
-1.19354e-05
-1.18503e-05
-1.17638e-05
-1.16744e-05
-1.15816e-05
-1.14853e-05
-1.13852e-05
-1.12811e-05
-1.11725e-05
-1.1059e-05
-1.09401e-05
-1.08151e-05
-1.06833e-05
-1.05438e-05
-1.03955e-05
-1.02374e-05
-1.00684e-05
-9.88737e-06
-9.69326e-06
-9.4853e-06
-9.263e-06
-9.02624e-06
-8.77536e-06
-8.51123e-06
-8.23491e-06
-7.94887e-06
-7.65021e-06
-7.39245e-06
-1.22605e-05
-1.21812e-05
-1.20926e-05
-1.20043e-05
-1.19148e-05
-1.18224e-05
-1.17265e-05
-1.16271e-05
-1.15237e-05
-1.14159e-05
-1.13034e-05
-1.11855e-05
-1.10615e-05
-1.09307e-05
-1.07921e-05
-1.06448e-05
-1.04876e-05
-1.03193e-05
-1.01389e-05
-9.94521e-06
-9.73736e-06
-9.51473e-06
-9.2771e-06
-9.02468e-06
-8.75817e-06
-8.47886e-06
-8.18825e-06
-7.88901e-06
-7.57962e-06
-7.30581e-06
-1.2419e-05
-1.23366e-05
-1.22447e-05
-1.21534e-05
-1.2061e-05
-1.19657e-05
-1.1867e-05
-1.17645e-05
-1.16578e-05
-1.15465e-05
-1.14299e-05
-1.13074e-05
-1.1178e-05
-1.1041e-05
-1.08952e-05
-1.07396e-05
-1.05729e-05
-1.03938e-05
-1.02013e-05
-9.99438e-06
-9.77223e-06
-9.5345e-06
-9.28125e-06
-9.01305e-06
-8.73101e-06
-8.43682e-06
-8.13236e-06
-7.82052e-06
-7.50089e-06
-7.21273e-06
-1.25707e-05
-1.24853e-05
-1.23904e-05
-1.22963e-05
-1.22012e-05
-1.21032e-05
-1.20017e-05
-1.18962e-05
-1.17864e-05
-1.16714e-05
-1.15507e-05
-1.14234e-05
-1.12884e-05
-1.11449e-05
-1.09914e-05
-1.0827e-05
-1.06501e-05
-1.04596e-05
-1.02545e-05
-1.00337e-05
-9.79677e-06
-9.54359e-06
-9.27456e-06
-8.99061e-06
-8.69327e-06
-8.38459e-06
-8.06684e-06
-7.74308e-06
-7.41386e-06
-7.11296e-06
-1.27141e-05
-1.2626e-05
-1.25283e-05
-1.24315e-05
-1.23339e-05
-1.22334e-05
-1.21293e-05
-1.2021e-05
-1.1908e-05
-1.17894e-05
-1.16645e-05
-1.15321e-05
-1.13913e-05
-1.12408e-05
-1.10793e-05
-1.09054e-05
-1.07179e-05
-1.05154e-05
-1.0297e-05
-1.00619e-05
-9.80988e-06
-9.54105e-06
-9.2562e-06
-8.95666e-06
-8.64437e-06
-8.32173e-06
-7.99134e-06
-7.65645e-06
-7.31849e-06
-7.00646e-06
-1.28477e-05
-1.27571e-05
-1.26568e-05
-1.25576e-05
-1.24578e-05
-1.2355e-05
-1.22484e-05
-1.21374e-05
-1.20212e-05
-1.1899e-05
-1.17697e-05
-1.16322e-05
-1.14852e-05
-1.13274e-05
-1.11573e-05
-1.09736e-05
-1.07748e-05
-1.05598e-05
-1.03277e-05
-1.0078e-05
-9.81053e-06
-9.52596e-06
-9.22538e-06
-8.91055e-06
-8.58378e-06
-8.2478e-06
-7.90554e-06
-7.56045e-06
-7.21453e-06
-6.89141e-06
-1.29699e-05
-1.28771e-05
-1.27744e-05
-1.26731e-05
-1.25712e-05
-1.24663e-05
-1.23575e-05
-1.22438e-05
-1.21246e-05
-1.19987e-05
-1.1865e-05
-1.17221e-05
-1.15687e-05
-1.14032e-05
-1.12241e-05
-1.103e-05
-1.08195e-05
-1.05916e-05
-1.03454e-05
-1.00807e-05
-9.79772e-06
-9.49745e-06
-9.18138e-06
-8.85168e-06
-8.51102e-06
-8.16244e-06
-7.80916e-06
-7.45494e-06
-7.1014e-06
-6.76647e-06
-1.30791e-05
-1.29843e-05
-1.28796e-05
-1.27765e-05
-1.26728e-05
-1.2566e-05
-1.2455e-05
-1.23389e-05
-1.22167e-05
-1.20871e-05
-1.19488e-05
-1.18003e-05
-1.16401e-05
-1.14666e-05
-1.12781e-05
-1.10732e-05
-1.08506e-05
-1.06093e-05
-1.03487e-05
-1.00689e-05
-9.77049e-06
-9.45471e-06
-9.12353e-06
-8.77951e-06
-8.42565e-06
-8.0653e-06
-7.702e-06
-7.33949e-06
-6.97756e-06
-6.63313e-06
-1.31737e-05
-1.30771e-05
-1.29707e-05
-1.28661e-05
-1.27609e-05
-1.26525e-05
-1.25395e-05
-1.24211e-05
-1.22959e-05
-1.21625e-05
-1.20195e-05
-1.18653e-05
-1.16981e-05
-1.15161e-05
-1.13179e-05
-1.11018e-05
-1.08668e-05
-1.06118e-05
-1.03367e-05
-1.00418e-05
-9.72797e-06
-9.397e-06
-9.05122e-06
-8.69354e-06
-8.3273e-06
-7.95611e-06
-7.58382e-06
-7.21345e-06
-6.84352e-06
-6.49232e-06
-1.32519e-05
-1.3154e-05
-1.30462e-05
-1.29403e-05
-1.28339e-05
-1.27241e-05
-1.26094e-05
-1.24887e-05
-1.23605e-05
-1.22234e-05
-1.20756e-05
-1.19154e-05
-1.17409e-05
-1.15503e-05
-1.1342e-05
-1.11144e-05
-1.08666e-05
-1.05979e-05
-1.03082e-05
-9.99823e-06
-9.66935e-06
-9.32366e-06
-8.9639e-06
-8.59334e-06
-8.21562e-06
-7.83465e-06
-7.45432e-06
-7.07581e-06
-6.70045e-06
-6.34346e-06
-1.33122e-05
-1.32132e-05
-1.31043e-05
-1.29976e-05
-1.28902e-05
-1.27792e-05
-1.2663e-05
-1.25401e-05
-1.24091e-05
-1.22682e-05
-1.21155e-05
-1.19491e-05
-1.17671e-05
-1.15676e-05
-1.13489e-05
-1.11097e-05
-1.0849e-05
-1.05664e-05
-1.02622e-05
-9.93744e-06
-9.59389e-06
-9.23406e-06
-8.86108e-06
-8.47853e-06
-8.09034e-06
-7.70069e-06
-7.31285e-06
-6.92655e-06
-6.54832e-06
-6.18611e-06
-1.33528e-05
-1.32531e-05
-1.31436e-05
-1.30363e-05
-1.29282e-05
-1.28163e-05
-1.26987e-05
-1.25739e-05
-1.244e-05
-1.22953e-05
-1.21376e-05
-1.19649e-05
-1.17752e-05
-1.15666e-05
-1.13373e-05
-1.10863e-05
-1.08126e-05
-1.05162e-05
-1.01977e-05
-9.85858e-06
-9.50092e-06
-9.12768e-06
-8.74233e-06
-8.34879e-06
-7.95125e-06
-7.5539e-06
-7.15849e-06
-6.76685e-06
-6.3869e-06
-6.0197e-06
-7.47454e-06
-7.43652e-06
-7.39351e-06
-7.34039e-06
-7.27661e-06
-7.20027e-06
-7.1096e-06
-7.00232e-06
-6.87605e-06
-6.72899e-06
-6.559e-06
-6.36316e-06
-6.13939e-06
-5.88579e-06
-5.60098e-06
-5.28429e-06
-4.93596e-06
-4.55736e-06
-4.15121e-06
-3.72157e-06
-3.2741e-06
-2.81513e-06
-2.35332e-06
-1.89728e-06
-1.45595e-06
-1.03822e-06
-6.51488e-07
-3.02335e-07
3.67045e-09
2.63445e-07
4.75556e-07
6.40515e-07
7.60489e-07
8.39048e-07
8.80776e-07
8.90887e-07
8.74852e-07
8.38134e-07
7.85953e-07
7.23207e-07
6.54314e-07
5.83185e-07
5.13011e-07
4.46279e-07
3.84561e-07
3.28813e-07
2.79191e-07
2.35716e-07
1.97765e-07
1.65146e-07
1.36814e-07
1.12867e-07
9.17826e-08
7.44242e-08
5.83898e-08
4.59525e-08
3.29441e-08
2.49641e-08
1.15587e-08
1.30378e-08
-7.4803e-06
-7.44098e-06
-7.39819e-06
-7.34511e-06
-7.28147e-06
-7.20528e-06
-7.11482e-06
-7.00789e-06
-6.88179e-06
-6.73494e-06
-6.5652e-06
-6.36967e-06
-6.14619e-06
-5.89287e-06
-5.60831e-06
-5.29182e-06
-4.94363e-06
-4.56511e-06
-4.15897e-06
-3.72927e-06
-3.28168e-06
-2.8224e-06
-2.36034e-06
-1.90395e-06
-1.46222e-06
-1.04405e-06
-6.5686e-07
-3.07236e-07
-7.55558e-10
2.59485e-07
4.72045e-07
6.37443e-07
7.57814e-07
8.36762e-07
8.78833e-07
8.89259e-07
8.73519e-07
8.37058e-07
7.85101e-07
7.22548e-07
6.5382e-07
5.82814e-07
5.12739e-07
4.46079e-07
3.84414e-07
3.28714e-07
2.79119e-07
2.35665e-07
1.97722e-07
1.65123e-07
1.36785e-07
1.12856e-07
9.17598e-08
7.44137e-08
5.83839e-08
4.59368e-08
3.29455e-08
2.49603e-08
1.15497e-08
1.30359e-08
-7.49155e-06
-7.44964e-06
-7.40728e-06
-7.35431e-06
-7.29095e-06
-7.21507e-06
-7.12499e-06
-7.01857e-06
-6.89311e-06
-6.74669e-06
-6.57744e-06
-6.38249e-06
-6.1596e-06
-5.90682e-06
-5.62275e-06
-5.30667e-06
-4.95878e-06
-4.58043e-06
-4.17431e-06
-3.7445e-06
-3.2967e-06
-2.83683e-06
-2.37428e-06
-1.91721e-06
-1.47471e-06
-1.05568e-06
-6.67576e-07
-3.17019e-07
-9.60025e-09
2.5157e-07
4.65031e-07
6.31288e-07
7.52471e-07
8.32173e-07
8.74942e-07
8.86008e-07
8.70844e-07
8.349e-07
7.83396e-07
7.2123e-07
6.52821e-07
5.82072e-07
5.12197e-07
4.45687e-07
3.84133e-07
3.28511e-07
2.78974e-07
2.35558e-07
1.97643e-07
1.65062e-07
1.36739e-07
1.12819e-07
9.17313e-08
7.43898e-08
5.83656e-08
4.59224e-08
3.29354e-08
2.49497e-08
1.15495e-08
1.30224e-08
-7.50795e-06
-7.4621e-06
-7.42045e-06
-7.36764e-06
-7.3047e-06
-7.2293e-06
-7.13981e-06
-7.0341e-06
-6.90952e-06
-6.76391e-06
-6.59543e-06
-6.40133e-06
-6.17929e-06
-5.92734e-06
-5.644e-06
-5.32853e-06
-4.9811e-06
-4.60302e-06
-4.19697e-06
-3.76699e-06
-3.31869e-06
-2.85839e-06
-2.39496e-06
-1.93689e-06
-1.49324e-06
-1.07295e-06
-6.83506e-07
-3.31576e-07
-2.27687e-08
2.39776e-07
4.54575e-07
6.22108e-07
7.44498e-07
8.25322e-07
8.69132e-07
8.81149e-07
8.66847e-07
8.31674e-07
7.80846e-07
7.19258e-07
6.51327e-07
5.80962e-07
5.11385e-07
4.45099e-07
3.83711e-07
3.28208e-07
2.78755e-07
2.354e-07
1.97526e-07
1.64973e-07
1.36669e-07
1.12763e-07
9.16881e-08
7.43539e-08
5.83382e-08
4.59005e-08
3.29206e-08
2.49337e-08
1.1549e-08
1.30025e-08
-7.52893e-06
-7.47783e-06
-7.43722e-06
-7.38463e-06
-7.32227e-06
-7.24751e-06
-7.15881e-06
-7.05403e-06
-6.93055e-06
-6.78608e-06
-6.6187e-06
-6.42574e-06
-6.20484e-06
-5.95398e-06
-5.67163e-06
-5.35699e-06
-5.01019e-06
-4.6325e-06
-4.22657e-06
-3.79643e-06
-3.34757e-06
-2.88661e-06
-2.4221e-06
-1.96275e-06
-1.51763e-06
-1.09569e-06
-7.04504e-07
-3.50781e-07
-4.01547e-08
2.24195e-07
4.40752e-07
6.09968e-07
7.33947e-07
8.16254e-07
8.61436e-07
8.74711e-07
8.61549e-07
8.27396e-07
7.77462e-07
7.16639e-07
6.49341e-07
5.79486e-07
5.10304e-07
4.44317e-07
3.8315e-07
3.27804e-07
2.78465e-07
2.35188e-07
1.97369e-07
1.64853e-07
1.36577e-07
1.1269e-07
9.16303e-08
7.43063e-08
5.83017e-08
4.58709e-08
3.2901e-08
2.49125e-08
1.15481e-08
1.29762e-08
-7.55381e-06
-7.49616e-06
-7.45701e-06
-7.40469e-06
-7.34306e-06
-7.26911e-06
-7.18141e-06
-7.07779e-06
-6.95562e-06
-6.8126e-06
-6.64664e-06
-6.45512e-06
-6.23567e-06
-5.98618e-06
-5.70509e-06
-5.39153e-06
-5.04556e-06
-4.66841e-06
-4.26269e-06
-3.83238e-06
-3.38295e-06
-2.92116e-06
-2.45542e-06
-1.99454e-06
-1.54764e-06
-1.12371e-06
-7.30401e-07
-3.74492e-07
-6.1636e-08
2.0493e-07
4.2365e-07
5.9494e-07
7.20883e-07
8.05022e-07
8.519e-07
8.6673e-07
8.54977e-07
8.22086e-07
7.73259e-07
7.13384e-07
6.46872e-07
5.77649e-07
5.08959e-07
4.43342e-07
3.8245e-07
3.27302e-07
2.78103e-07
2.34924e-07
1.97174e-07
1.64705e-07
1.36462e-07
1.12598e-07
9.1558e-08
7.42468e-08
5.82561e-08
4.58339e-08
3.28766e-08
2.48859e-08
1.15468e-08
1.29433e-08
-7.58192e-06
-7.51629e-06
-7.47915e-06
-7.42714e-06
-7.3664e-06
-7.29344e-06
-7.20695e-06
-7.1047e-06
-6.98408e-06
-6.84278e-06
-6.67855e-06
-6.4888e-06
-6.27109e-06
-6.02329e-06
-5.74374e-06
-5.43151e-06
-5.0866e-06
-4.71017e-06
-4.30479e-06
-3.87434e-06
-3.42439e-06
-2.96167e-06
-2.49456e-06
-2.03193e-06
-1.583e-06
-1.15678e-06
-7.61e-07
-4.0254e-07
-8.70703e-08
1.82102e-07
4.03373e-07
5.77113e-07
7.05376e-07
7.91685e-07
8.40574e-07
8.57246e-07
8.47163e-07
8.15768e-07
7.68255e-07
7.09504e-07
6.43927e-07
5.75455e-07
5.07351e-07
4.42178e-07
3.81613e-07
3.267e-07
2.7767e-07
2.34609e-07
1.96939e-07
1.64526e-07
1.36324e-07
1.12488e-07
9.14711e-08
7.41754e-08
5.82014e-08
4.57892e-08
3.28475e-08
2.4854e-08
1.15452e-08
1.29039e-08
-7.61275e-06
-7.5373e-06
-7.50293e-06
-7.45124e-06
-7.39155e-06
-7.31976e-06
-7.23469e-06
-7.134e-06
-7.01519e-06
-6.87587e-06
-6.71368e-06
-6.526e-06
-6.31036e-06
-6.06454e-06
-5.78683e-06
-5.47622e-06
-5.13263e-06
-4.75712e-06
-4.35221e-06
-3.9218e-06
-3.47134e-06
-3.00767e-06
-2.5391e-06
-2.07459e-06
-1.62341e-06
-1.19462e-06
-7.96073e-07
-4.34733e-07
-1.16295e-07
1.55847e-07
3.80034e-07
5.56581e-07
6.8751e-07
7.76314e-07
8.27514e-07
8.46306e-07
8.38145e-07
8.08471e-07
7.6247e-07
7.05015e-07
6.40516e-07
5.72913e-07
5.05486e-07
4.40825e-07
3.8064e-07
3.26001e-07
2.77167e-07
2.34242e-07
1.96667e-07
1.64319e-07
1.36163e-07
1.12359e-07
9.13696e-08
7.40923e-08
5.81376e-08
4.5737e-08
3.28136e-08
2.48167e-08
1.15432e-08
1.28581e-08
-7.64634e-06