/*--------------------------------*- C++ -*----------------------------------*\
| =========                 |                                                 |
| \\      /  F ield         | foam-extend: Open Source CFD                    |
|  \\    /   O peration     | Version:     4.0                                |
|   \\  /    A nd           | Web:         http://www.foam-extend.org         |
|    \\/     M anipulation  |                                                 |
\*---------------------------------------------------------------------------*/
FoamFile
{
    version     2.0;
    format      ascii;
    class       surfaceScalarField;
    location    "105";
    object      phi;
}
// * * * * * * * * * * * * * * * * * * * * * * * * * * * * * * * * * * * * * //

dimensions      [0 3 -1 0 0 0 0];

internalField   nonuniform List<scalar> 
71520
(
-1.28652e-10
1.29422e-10
-7.70665e-13
-5.20076e-10
3.93747e-10
-2.32295e-12
-1.19577e-09
6.79664e-10
-3.97148e-12
-2.17767e-09
9.87607e-10
-5.70704e-12
-3.48804e-09
1.31789e-09
-7.51735e-12
-5.14939e-09
1.67073e-09
-9.38687e-12
-7.18433e-09
2.04624e-09
-1.12966e-11
-9.61553e-09
2.44443e-09
-1.3224e-11
-1.24656e-08
2.86521e-09
-1.51425e-11
-1.5757e-08
3.30842e-09
-1.70217e-11
-1.9512e-08
3.77381e-09
-1.88267e-11
-2.37525e-08
4.26103e-09
-2.05186e-11
-2.85001e-08
4.7697e-09
-2.20533e-11
-3.37761e-08
5.29938e-09
-2.33829e-11
-3.96013e-08
5.84962e-09
-2.44549e-11
-4.5996e-08
6.41989e-09
-2.52121e-11
-5.29801e-08
7.00972e-09
-2.5593e-11
-6.05732e-08
7.6186e-09
-2.5531e-11
-6.87943e-08
8.24603e-09
-2.4954e-11
-7.76619e-08
8.8914e-09
-2.37837e-11
-8.71939e-08
9.55401e-09
-2.19347e-11
-9.74076e-08
1.02329e-08
-1.93131e-11
-1.08319e-07
1.09268e-08
-1.58136e-11
-1.19941e-07
1.16336e-08
-1.13172e-11
-1.32286e-07
1.23504e-08
-5.68862e-12
-1.4536e-07
1.30729e-08
1.22637e-12
-1.59164e-07
1.37952e-08
9.60256e-12
-1.73693e-07
1.45086e-08
1.96375e-11
-1.88922e-07
1.51973e-08
3.15524e-11
1.58312e-08
-2.04798e-07
4.56013e-11
-1.27169e-10
2.56592e-10
-5.1413e-10
7.80709e-10
-1.18218e-09
1.34771e-09
-2.15302e-09
1.95846e-09
-3.44871e-09
2.61358e-09
-5.09146e-09
3.31348e-09
-7.10361e-09
4.05839e-09
-9.50751e-09
4.84833e-09
-1.23254e-08
5.6831e-09
-1.55793e-08
6.56235e-09
-1.92911e-08
7.48554e-09
-2.3482e-08
8.45196e-09
-2.81731e-08
9.46081e-09
-3.33849e-08
1.05111e-08
-3.91372e-08
1.16019e-08
-4.54494e-08
1.27321e-08
-5.23404e-08
1.39006e-08
-5.98281e-08
1.51063e-08
-6.793e-08
1.63479e-08
-7.66628e-08
1.76242e-08
-8.60421e-08
1.89333e-08
-9.60824e-08
2.02732e-08
-1.06796e-07
2.16409e-08
-1.18195e-07
2.30318e-08
-1.30284e-07
2.44396e-08
-1.43066e-07
2.58552e-08
-1.56537e-07
2.72662e-08
-1.70683e-07
2.86543e-08
-1.85474e-07
2.99883e-08
3.12072e-08
-2.0085e-07
-1.24245e-10
3.80837e-10
-5.02398e-10
1.15886e-09
-1.15534e-09
2.00065e-09
-2.10436e-09
2.90747e-09
-3.37101e-09
3.88022e-09
-4.97699e-09
4.91947e-09
-6.94409e-09
6.02549e-09
-9.29398e-09
7.19822e-09
-1.20482e-08
8.43731e-09
-1.52279e-08
9.7421e-09
-1.8854e-08
1.11116e-08
-2.29468e-08
1.25447e-08
-2.75259e-08
1.40399e-08
-3.26104e-08
1.55956e-08
-3.82184e-08
1.72099e-08
-4.43672e-08
1.8881e-08
-5.10734e-08
2.06068e-08
-5.83522e-08
2.23852e-08
-6.6218e-08
2.42137e-08
-7.46835e-08
2.60897e-08
-8.376e-08
2.80099e-08
-9.34568e-08
2.99701e-08
-1.03781e-07
3.19648e-08
-1.14735e-07
3.3986e-08
-1.26318e-07
3.60227e-08
-1.38523e-07
3.80598e-08
-1.51333e-07
4.00765e-08
-1.64722e-07
4.20433e-08
-1.78647e-07
4.39132e-08
4.55924e-08
-1.93032e-07
-1.19949e-10
5.00786e-10
-4.85155e-10
1.52407e-09
-1.11589e-09
2.63139e-09
-2.03277e-09
3.82436e-09
-3.25666e-09
5.10411e-09
-4.80849e-09
6.4713e-09
-6.70915e-09
7.92616e-09
-8.9794e-09
9.46847e-09
-1.16397e-08
1.10976e-08
-1.47099e-08
1.28123e-08
-1.82095e-08
1.46113e-08
-2.21573e-08
1.64924e-08
-2.65708e-08
1.84535e-08
-3.14671e-08
2.04918e-08
-3.68616e-08
2.26045e-08
-4.27689e-08
2.47883e-08
-4.92018e-08
2.70397e-08
-5.61717e-08
2.9355e-08
-6.3688e-08
3.173e-08
-7.17581e-08
3.41598e-08
-8.03869e-08
3.66386e-08
-8.95759e-08
3.91591e-08
-9.93231e-08
4.1712e-08
-1.09621e-07
4.42842e-08
-1.20457e-07
4.68586e-08
-1.31809e-07
4.94119e-08
-1.43646e-07
5.1913e-08
-1.55921e-07
5.43182e-08
-1.6857e-07
5.65629e-08
5.85161e-08
-1.81494e-07
-1.14384e-10
6.1517e-10
-4.62799e-10
1.87248e-09
-1.06471e-09
3.2333e-09
-1.93987e-09
4.69952e-09
-3.10818e-09
6.27242e-09
-4.58956e-09
7.95267e-09
-6.40376e-09
9.74036e-09
-8.57026e-09
1.1635e-08
-1.11081e-08
1.36354e-08
-1.40355e-08
1.57398e-08
-1.73701e-08
1.79459e-08
-2.11284e-08
2.02507e-08
-2.53258e-08
2.26508e-08
-2.9976e-08
2.51421e-08
-3.50916e-08
2.772e-08
-4.06829e-08
3.03796e-08
-4.67584e-08
3.31152e-08
-5.33242e-08
3.59208e-08
-6.03835e-08
3.87894e-08
-6.79366e-08
4.17129e-08
-7.59799e-08
4.46819e-08
-8.45052e-08
4.76844e-08
-9.34989e-08
5.07056e-08
-1.02941e-07
5.37258e-08
-1.12801e-07
5.67194e-08
-1.23042e-07
5.96526e-08
-1.3361e-07
6.24812e-08
-1.44436e-07
6.51443e-08
-1.55429e-07
6.75553e-08
6.95381e-08
-1.66451e-07
-1.07678e-10
7.22848e-10
-4.35839e-10
2.20064e-09
-1.00294e-09
3.8004e-09
-1.82767e-09
5.52424e-09
-2.92875e-09
7.3735e-09
-4.32482e-09
9.34875e-09
-6.03424e-09
1.14498e-08
-8.07488e-09
1.36756e-08
-1.0464e-08
1.60245e-08
-1.32179e-08
1.84937e-08
-1.63518e-08
2.10798e-08
-1.98796e-08
2.37786e-08
-2.38136e-08
2.65848e-08
-2.81642e-08
2.94927e-08
-3.29397e-08
3.24955e-08
-3.81457e-08
3.55857e-08
-4.37854e-08
3.87549e-08
-4.98583e-08
4.19937e-08
-5.63603e-08
4.52914e-08
-6.32829e-08
4.86355e-08
-7.06124e-08
5.20114e-08
-7.83288e-08
5.54008e-08
-8.64047e-08
5.87815e-08
-9.48036e-08
6.21248e-08
-1.03478e-07
6.53942e-08
-1.12368e-07
6.85426e-08
-1.21397e-07
7.15098e-08
-1.30467e-07
7.4214e-08
-1.39456e-07
7.65446e-08
7.82591e-08
-1.48177e-07
-9.99834e-11
8.22832e-10
-4.04873e-10
2.50553e-09
-9.31939e-10
4.32747e-09
-1.69858e-09
6.29088e-09
-2.72214e-09
8.39706e-09
-4.01973e-09
1.06463e-08
-5.60803e-09
1.30381e-08
-7.50305e-09
1.55706e-08
-9.71991e-09
1.82413e-08
-1.22726e-08
2.10463e-08
-1.51736e-08
2.39808e-08
-1.84336e-08
2.70387e-08
-2.20615e-08
3.02127e-08
-2.60636e-08
3.34947e-08
-3.04432e-08
3.68751e-08
-3.52008e-08
4.03432e-08
-4.03328e-08
4.38869e-08
-4.58316e-08
4.74925e-08
-5.16844e-08
5.11442e-08
-5.78727e-08
5.48238e-08
-6.43712e-08
5.85098e-08
-7.11462e-08
6.21759e-08
-7.81545e-08
6.57899e-08
-8.53417e-08
6.93119e-08
-9.26393e-08
7.26918e-08
-9.99625e-08
7.58658e-08
-1.07207e-07
7.87539e-08
-1.14243e-07
8.12504e-08
-1.20926e-07
8.32275e-08
8.43251e-08
-1.26992e-07
-9.14702e-11
9.14302e-10
-3.70566e-10
2.78463e-09
-8.5319e-10
4.81009e-09
-1.55527e-09
6.99296e-09
-2.49254e-09
9.33434e-09
-3.68036e-09
1.18342e-08
-5.13348e-09
1.44912e-08
-6.86575e-09
1.73029e-08
-8.88987e-09
2.02654e-08
-1.12171e-08
2.33735e-08
-1.38568e-08
2.66205e-08
-1.68163e-08
2.99981e-08
-2.01001e-08
3.34966e-08
-2.37101e-08
3.71047e-08
-2.76442e-08
4.08093e-08
-3.18967e-08
4.45957e-08
-3.64569e-08
4.84471e-08
-4.13088e-08
5.23444e-08
-4.64301e-08
5.62655e-08
-5.17911e-08
6.01849e-08
-5.73534e-08
6.40722e-08
-6.30687e-08
6.78911e-08
-6.88762e-08
7.15974e-08
-7.47015e-08
7.51372e-08
-8.0453e-08
7.84432e-08
-8.60191e-08
8.14319e-08
-9.1265e-08
8.39999e-08
-9.60271e-08
8.60124e-08
-1.00139e-07
8.73389e-08
8.74309e-08
-1.03244e-07
-8.23191e-11
9.96621e-10
-3.33631e-10
3.03594e-09
-7.68304e-10
5.24477e-09
-1.4006e-09
7.62525e-09
-2.24446e-09
1.01782e-08
-3.31326e-09
1.2903e-08
-4.61955e-09
1.57975e-08
-6.17478e-09
1.88581e-08
-7.98892e-09
2.20796e-08
-1.00702e-08
2.54548e-08
-1.24244e-08
2.89748e-08
-1.5055e-08
3.26287e-08
-1.79622e-08
3.64038e-08
-2.11424e-08
4.02848e-08
-2.45878e-08
4.42547e-08
-2.82858e-08
4.82937e-08
-3.22181e-08
5.23793e-08
-3.63594e-08
5.64857e-08
-4.06771e-08
6.05832e-08
-4.51294e-08
6.46371e-08
-4.96639e-08
6.86066e-08
-5.4216e-08
7.24432e-08
-5.87067e-08
7.60882e-08
-6.30401e-08
7.94706e-08
-6.70999e-08
8.2503e-08
-7.07462e-08
8.50782e-08
-7.38123e-08
8.7066e-08
-7.6102e-08
8.8302e-08
-7.74172e-08
8.86542e-08
8.7309e-08
-7.72954e-08
-7.27166e-11
1.06934e-09
-2.94801e-10
3.25802e-09
-6.78931e-10
5.62889e-09
-1.23753e-09
8.18385e-09
-1.98254e-09
1.09232e-08
-2.92514e-09
1.38456e-08
-4.07548e-09
1.69478e-08
-5.44231e-09
2.0225e-08
-7.03261e-09
2.36699e-08
-8.85119e-09
2.72734e-08
-1.09002e-08
3.10238e-08
-1.31786e-08
3.49072e-08
-1.56818e-08
3.89069e-08
-1.84006e-08
4.30036e-08
-2.13209e-08
4.71751e-08
-2.44227e-08
5.13956e-08
-2.76793e-08
5.56359e-08
-3.10557e-08
5.98622e-08
-3.45082e-08
6.40357e-08
-3.79821e-08
6.8111e-08
-4.14103e-08
7.20349e-08
-4.47114e-08
7.57443e-08
-4.7787e-08
7.91638e-08
-5.05191e-08
8.22026e-08
-5.27658e-08
8.47497e-08
-5.43579e-08
8.66703e-08
-5.5094e-08
8.78021e-08
-5.47421e-08
8.79502e-08
-5.30994e-08
8.70115e-08
8.37413e-08
-4.95317e-08
-6.2847e-11
1.13218e-09
-2.54806e-10
3.44998e-09
-5.86714e-10
5.9608e-09
-1.06899e-09
8.66613e-09
-1.7114e-09
1.15656e-08
-2.52274e-09
1.46569e-08
-3.5105e-09
1.79356e-08
-4.68051e-09
2.1395e-08
-6.03649e-09
2.50259e-08
-7.57961e-09
2.88165e-08
-9.3079e-09
3.27521e-08
-1.12157e-08
3.6815e-08
-1.32931e-08
4.09843e-08
-1.5525e-08
4.52355e-08
-1.78905e-08
4.95406e-08
-2.03619e-08
5.38669e-08
-2.29034e-08
5.81774e-08
-2.547e-08
6.24288e-08
-2.80061e-08
6.65717e-08
-3.04436e-08
7.05486e-08
-3.27005e-08
7.42917e-08
-3.46778e-08
7.77217e-08
-3.62575e-08
8.07435e-08
-3.72988e-08
8.32439e-08
-3.76345e-08
8.50854e-08
-3.70657e-08
8.61015e-08
-3.53541e-08
8.60904e-08
-3.22067e-08
8.48028e-08
-2.7477e-08
8.22818e-08
7.67105e-08
-2.04462e-08
-5.28869e-11
1.18507e-09
-2.14342e-10
3.61144e-09
-4.93227e-10
6.23969e-09
-8.97812e-10
9.07072e-09
-1.4355e-09
1.21033e-08
-2.11251e-09
1.53339e-08
-2.93349e-09
1.87566e-08
-3.90111e-09
2.23626e-08
-5.01559e-09
2.61404e-08
-6.27418e-09
3.00751e-08
-7.67051e-09
3.41484e-08
-9.19401e-09
3.83385e-08
-1.08291e-08
4.26194e-08
-1.25545e-08
4.69609e-08
-1.43422e-08
5.13282e-08
-1.61561e-08
5.56809e-08
-1.79513e-08
5.99725e-08
-1.9672e-08
6.41495e-08
-2.12504e-08
6.81502e-08
-2.2605e-08
7.19032e-08
-2.36382e-08
7.53248e-08
-2.42336e-08
7.83171e-08
-2.42531e-08
8.0763e-08
-2.35325e-08
8.25233e-08
-2.18783e-08
8.34311e-08
-1.90632e-08
8.32864e-08
-1.4824e-08
8.18513e-08
-8.84188e-09
7.88206e-08
-2.94326e-10
7.37343e-08
6.67683e-08
9.64782e-09
-4.29982e-11
1.22807e-09
-1.7405e-10
3.74249e-09
-3.99918e-10
6.46555e-09
-7.26583e-10
9.39738e-09
-1.15894e-09
1.25357e-08
-1.70044e-09
1.58754e-08
-2.3527e-09
1.94088e-08
-3.11502e-09
2.31249e-08
-3.9839e-09
2.70092e-08
-4.9524e-09
3.10436e-08
-6.00951e-09
3.52055e-08
-7.13944e-09
3.94684e-08
-8.32081e-09
4.38008e-08
-9.52573e-09
4.81659e-08
-1.07186e-08
5.25211e-08
-1.18548e-08
5.68172e-08
-1.28797e-08
6.09974e-08
-1.37265e-08
6.49964e-08
-1.43154e-08
6.87391e-08
-1.45511e-08
7.2139e-08
-1.43203e-08
7.5094e-08
-1.34882e-08
7.7485e-08
-1.18964e-08
7.91712e-08
-9.35814e-09
7.9985e-08
-5.65407e-09
7.97271e-08
-5.27041e-10
7.81594e-08
6.32494e-09
7.49993e-08
1.52403e-08
6.99052e-08
2.66125e-08
6.23621e-08
5.23342e-08
4.10467e-08
-3.33211e-11
1.26139e-09
-1.34487e-10
3.84365e-09
-3.08056e-10
6.63912e-09
-5.57593e-10
9.64692e-09
-8.85343e-10
1.28634e-08
-1.29184e-09
1.62819e-08
-1.77548e-09
1.98925e-08
-2.33198e-09
2.36814e-08
-2.9539e-09
2.76311e-08
-3.6299e-09
3.17196e-08
-4.34411e-09
3.59197e-08
-5.07529e-09
4.01996e-08
-5.79601e-09
4.45215e-08
-6.47137e-09
4.88412e-08
-7.05783e-09
5.31075e-08
-7.50198e-09
5.72613e-08
-7.73911e-09
6.12345e-08
-7.69181e-09
6.49491e-08
-7.26796e-09
6.83152e-08
-6.35762e-09
7.12286e-08
-4.83137e-09
7.35677e-08
-2.53673e-09
7.51904e-08
7.05161e-10
7.59293e-08
5.10375e-09
7.55865e-08
1.09039e-08
7.3927e-08
1.83914e-08
7.06718e-08
2.79005e-08
6.54903e-08
3.98238e-08
5.79819e-08
5.4549e-08
4.76369e-08
3.40834e-08
7.27998e-08
-2.39698e-11
1.28536e-09
-9.61119e-11
3.9158e-09
-2.18685e-10
6.7617e-09
-3.92732e-10
9.82097e-09
-6.17721e-10
1.30884e-08
-8.91129e-10
1.65553e-08
-1.20796e-09
2.02093e-08
-1.5602e-09
2.40336e-08
-1.93618e-09
2.80071e-08
-2.32001e-09
3.21034e-08
-2.6907e-09
3.62904e-08
-3.02151e-09
4.05304e-08
-3.27844e-09
4.47784e-08
-3.41911e-09
4.89819e-08
-3.39189e-09
5.30803e-08
-3.13456e-09
5.7004e-08
-2.57271e-09
6.06726e-08
-1.61762e-09
6.3994e-08
-1.63939e-10
6.68615e-08
1.91243e-09
6.91522e-08
4.75707e-09
7.07231e-08
8.54046e-09
7.1407e-08
1.34616e-08
7.10081e-08
1.97525e-08
6.92955e-08
2.76834e-08
6.59961e-08
3.75687e-08
6.07866e-08
4.9774e-08
5.32849e-08
6.47231e-08
4.30328e-08
8.2877e-08
2.9483e-08
1.20209e-08
1.0494e-07
-1.50312e-11
1.30039e-09
-5.9278e-11
3.96004e-09
-1.32617e-10
6.83503e-09
-2.33462e-10
9.92181e-09
-3.58388e-10
1.32133e-08
-5.01684e-10
1.66986e-08
-6.54838e-10
2.03624e-08
-8.05949e-10
2.41848e-08
-9.39041e-10
2.81402e-08
-1.03335e-09
3.21977e-08
-1.06263e-09
3.63197e-08
-9.93812e-10
4.04616e-08
-7.86131e-10
4.45707e-08
-3.90128e-10
4.85859e-08
2.53806e-10
5.24364e-08
1.21705e-09
5.60407e-08
2.58459e-09
5.93051e-08
4.45686e-09
6.21217e-08
6.9521e-09
6.43663e-08
1.02088e-08
6.58955e-08
1.43889e-08
6.6543e-08
1.96808e-08
6.61151e-08
2.63037e-08
6.43853e-08
3.45119e-08
6.10873e-08
4.46004e-08
5.59075e-08
5.69115e-08
4.84755e-08
7.18414e-08
3.8355e-08
8.98492e-08
2.50251e-08
1.11446e-07
7.88589e-09
-1.38826e-08
1.3735e-07
-6.58255e-12
1.30697e-09
-2.42862e-11
3.97775e-09
-5.05217e-11
6.86127e-09
-8.09753e-11
9.95227e-09
-1.09204e-10
1.32416e-08
-1.26164e-10
1.67156e-08
-1.19668e-10
2.03559e-08
-7.37605e-11
2.41389e-08
3.19827e-11
2.80345e-08
2.23291e-10
3.20064e-08
5.32094e-10
3.60109e-08
9.97723e-10
3.9996e-08
1.66764e-09
4.39008e-08
2.59892e-09
4.76546e-08
3.8597e-09
5.11756e-08
5.53092e-09
5.43695e-08
7.70813e-09
5.71279e-08
1.05036e-08
5.93262e-08
1.40487e-08
6.08212e-08
1.84966e-08
6.14476e-08
2.40255e-08
6.10141e-08
3.0842e-08
5.92987e-08
3.91852e-08
5.60421e-08
4.93316e-08
5.09409e-08
6.16006e-08
4.36385e-08
7.63615e-08
3.37146e-08
9.40405e-08
2.06761e-08
1.15131e-07
3.93469e-09
1.40186e-07
-1.7169e-08
-4.36432e-08
1.69946e-07
1.31244e-12
1.30566e-09
8.63553e-12
3.97042e-09
2.70998e-11
6.84281e-09
6.38382e-11
9.91553e-09
1.28415e-10
1.3177e-08
2.33332e-10
1.66107e-08
3.94606e-10
2.01947e-08
6.32434e-10
2.3901e-08
9.71951e-10
2.7695e-08
1.44409e-09
3.15343e-08
2.08662e-09
3.53684e-08
2.94505e-09
3.91376e-08
4.07392e-09
4.27719e-08
5.53819e-09
4.61903e-08
7.41483e-09
4.9299e-08
9.79456e-09
5.19898e-08
1.27838e-08
5.41387e-08
1.65068e-08
5.56032e-08
2.11085e-08
5.62195e-08
2.67568e-08
5.57992e-08
3.36465e-08
5.41244e-08
4.20022e-08
5.09429e-08
5.20832e-08
4.59611e-08
6.41879e-08
3.88363e-08
7.86596e-08
2.91667e-08
9.58938e-08
1.64805e-08
1.16345e-07
2.2456e-10
1.40538e-07
-2.02584e-08
1.69065e-07
-4.56957e-08
-7.72747e-08
2.02697e-07
8.67408e-12
1.29699e-09
3.95375e-11
3.93956e-09
1.00335e-10
6.78201e-09
2.01103e-10
9.81476e-09
3.54631e-10
1.30234e-08
5.76995e-10
1.63883e-08
8.8818e-10
1.98835e-08
1.31278e-09
2.34764e-08
1.88081e-09
2.71269e-08
2.62858e-09
3.07865e-08
3.59976e-09
3.43972e-08
4.84647e-09
3.78909e-08
6.43056e-09
4.11878e-08
8.42516e-09
4.41957e-08
1.09163e-08
4.68078e-08
1.40048e-08
4.89013e-08
1.78081e-08
5.03354e-08
2.2463e-08
5.09483e-08
2.81279e-08
5.05545e-08
3.49863e-08
4.89409e-08
4.32493e-08
4.58614e-08
5.31601e-08
4.10322e-08
6.49978e-08
3.41234e-08
7.90825e-08
2.47515e-08
9.57812e-08
1.2468e-08
1.15514e-07
-3.25242e-09
1.38762e-07
-2.30233e-08
1.66078e-07
-4.75741e-08
1.98091e-07
-7.77088e-08
-1.1479e-07
2.35606e-07
1.55368e-11
1.28145e-09
6.85457e-11
3.88655e-09
1.69446e-10
6.68111e-09
3.31257e-10
9.65295e-09
5.70089e-10
1.27846e-08
9.05709e-10
1.60527e-08
1.3622e-09
1.9427e-08
1.9687e-09
2.28699e-08
2.76025e-09
2.63354e-08
3.77875e-09
2.9768e-08
5.07401e-09
3.31019e-08
6.70497e-09
3.62599e-08
8.74109e-09
3.91517e-08
1.1264e-08
4.16729e-08
1.4369e-08
4.37028e-08
1.81673e-08
4.51031e-08
2.27879e-08
4.57148e-08
2.83803e-08
4.53559e-08
3.51171e-08
4.38177e-08
4.31971e-08
4.08609e-08
5.28485e-08
3.621e-08
6.4333e-08
2.95477e-08
7.79497e-08
2.05067e-08
9.40402e-08
8.66102e-09
1.12994e-07
-6.48535e-09
1.35253e-07
-2.55114e-08
1.61322e-07
-4.90932e-08
1.91784e-07
-7.80356e-08
2.27298e-07
-1.13223e-07
-1.56193e-07
2.68701e-07
2.19553e-11
1.2595e-09
9.5874e-11
3.81263e-09
2.3491e-10
6.54207e-09
4.5514e-10
9.43272e-09
7.76088e-10
1.24637e-08
1.22132e-09
1.56074e-08
1.81916e-09
1.88292e-08
2.60343e-09
2.20857e-08
3.61438e-09
2.53244e-08
4.89966e-09
2.84827e-08
6.5155e-09
3.14861e-08
8.52791e-09
3.42475e-08
1.10143e-08
3.66653e-08
1.40649e-08
3.86222e-08
1.77849e-08
3.99828e-08
2.22962e-08
4.05918e-08
2.77396e-08
4.02713e-08
3.42779e-08
3.88176e-08
4.2098e-08
3.59976e-08
5.14147e-08
3.15442e-08
6.24735e-08
2.51512e-08
7.55547e-08
1.64665e-08
9.09774e-08
5.08404e-09
1.09103e-07
-9.46486e-09
1.30342e-07
-2.7724e-08
1.55158e-07
-5.03273e-08
1.84079e-07
-7.80144e-08
2.17709e-07
-1.11665e-07
2.56733e-07
-1.52247e-07
-2.01474e-07
3.02014e-07
2.80097e-11
1.23149e-09
1.21834e-10
3.71881e-09
2.97421e-10
6.36649e-09
5.73981e-10
9.15616e-09
9.74544e-10
1.20631e-08
1.5266e-09
1.50554e-08
2.26281e-09
1.80929e-08
3.22187e-09
2.11266e-08
4.4494e-09
2.40969e-08
5.99905e-09
2.69331e-08
7.93364e-09
2.95515e-08
1.03266e-08
3.18545e-08
1.32635e-08
3.37284e-08
1.68438e-08
3.50419e-08
2.11826e-08
3.56441e-08
2.64128e-08
3.53616e-08
3.26878e-08
3.39963e-08
4.01839e-08
3.13216e-08
4.91029e-08
2.70785e-08
5.96759e-08
2.09712e-08
7.21659e-08
1.26612e-08
8.68719e-08
1.76041e-09
1.04132e-07
-1.21758e-08
1.24326e-07
-2.96594e-08
1.47885e-07
-5.12826e-08
1.75291e-07
-7.77338e-08
2.07092e-07
-1.09815e-07
2.43906e-07
-1.4848e-07
2.86441e-07
-1.94782e-07
-2.50597e-07
3.35564e-07
3.38005e-11
1.19769e-09
1.46819e-10
3.60579e-09
3.57859e-10
6.15545e-09
6.89342e-10
8.82468e-09
1.1679e-09
1.15845e-08
1.82505e-09
1.43982e-08
2.69796e-09
1.722e-08
3.83032e-09
1.99942e-08
5.27335e-09
2.26539e-08
7.08685e-09
2.51196e-08
9.34057e-09
2.72978e-08
1.21156e-08
2.90794e-08
1.55061e-08
3.03379e-08
1.96208e-08
3.09272e-08
2.45853e-08
3.06796e-08
3.05442e-08
2.94027e-08
3.76636e-08
2.68769e-08
4.61337e-08
2.28515e-08
5.61719e-08
1.70404e-08
6.80256e-08
9.1175e-09
8.19757e-08
-1.2889e-09
9.83387e-08
-1.46026e-08
1.17471e-07
-3.13079e-08
1.39771e-07
-5.196e-08
1.65687e-07
-7.71984e-08
1.95717e-07
-1.07763e-07
2.30419e-07
-1.44516e-07
2.70422e-07
-1.88483e-07
3.16444e-07
-2.40805e-07
-3.03487e-07
3.69335e-07
3.94447e-11
1.15824e-09
1.71287e-10
3.47395e-09
4.17249e-10
5.90949e-09
8.03047e-10
8.43888e-09
1.35901e-09
1.10286e-08
2.12081e-09
1.36364e-08
3.13024e-09
1.62106e-08
4.43618e-09
1.86883e-08
6.0956e-09
2.09945e-08
8.17474e-09
2.30404e-08
1.07505e-08
2.4722e-08
1.39121e-08
2.59179e-08
1.77622e-08
2.64878e-08
2.24195e-08
2.62699e-08
2.80205e-08
2.50786e-08
3.47217e-08
2.27015e-08
4.27025e-08
1.88962e-08
5.21675e-08
1.33865e-08
6.33497e-08
5.85812e-09
7.65133e-08
-4.04609e-09
9.19559e-08
-1.67315e-08
1.10012e-07
-3.26587e-08
1.31055e-07
-5.23514e-08
1.55502e-07
-7.64067e-08
1.83812e-07
-1.05508e-07
2.16491e-07
-1.40443e-07
2.54103e-07
-1.82128e-07
2.97275e-07
-2.31655e-07
3.46731e-07
-2.90261e-07
-3.6001e-07
4.03254e-07
4.50702e-11
1.11317e-09
1.95737e-10
3.32328e-09
4.76715e-10
5.62851e-09
9.17094e-10
7.9985e-09
1.55101e-09
1.03947e-08
2.41839e-09
1.27691e-08
3.56584e-09
1.50632e-08
5.04756e-09
1.72066e-08
6.92649e-09
1.91155e-08
9.27555e-09
2.06914e-08
1.21791e-08
2.18184e-08
1.57345e-08
2.23626e-08
2.00537e-08
2.21686e-08
2.52655e-08
2.10581e-08
3.15175e-08
1.88265e-08
3.89789e-08
1.52401e-08
4.78423e-08
1.00328e-08
5.83273e-08
2.90147e-09
7.06826e-08
-6.4971e-09
8.51883e-08
-1.85519e-08
1.0216e-07
-3.37028e-08
1.21948e-07
-5.24472e-08
1.44944e-07
-7.53472e-08
1.71576e-07
-1.03039e-07
2.02311e-07
-1.36243e-07
2.37657e-07
-1.75789e-07
2.78168e-07
-2.22639e-07
3.24455e-07
-2.77941e-07
3.7724e-07
-3.43047e-07
-4.19939e-07
4.3717e-07
5.08105e-11
1.06236e-09
2.20694e-10
3.1534e-09
5.3743e-10
5.31178e-09
1.03357e-09
7.50236e-09
1.74717e-09
9.68108e-09
2.72255e-09
1.17937e-08
4.01123e-09
1.37745e-08
5.67294e-09
1.55449e-08
7.7768e-09
1.70117e-08
1.04026e-08
1.80655e-08
1.36425e-08
1.85786e-08
1.76022e-08
1.84029e-08
2.24032e-08
1.73676e-08
2.81849e-08
1.52764e-08
3.51064e-08
1.1905e-08
4.33494e-08
6.99713e-09
5.31206e-08
2.61528e-10
6.46541e-08
-8.63201e-09
7.8214e-08
-2.0057e-08
9.40972e-08
-3.4435e-08
1.12635e-07
-5.2241e-08
1.34197e-07
-7.40084e-08
1.59184e-07
-1.00335e-07
1.88037e-07
-1.31891e-07
2.21222e-07
-1.69429e-07
2.59237e-07
-2.13804e-07
3.0261e-07
-2.66012e-07
3.51909e-07
-3.27241e-07
4.07852e-07
-3.9899e-07
-4.82916e-07
4.70829e-07
5.67992e-11
1.00557e-09
2.46682e-10
2.96352e-09
6.00572e-10
4.95789e-09
1.15458e-09
6.94835e-09
1.95078e-09
8.88488e-09
3.03801e-09
1.07065e-08
4.47287e-09
1.23396e-08
6.32079e-09
1.36969e-08
8.65726e-09
1.46752e-08
1.15693e-08
1.51535e-08
1.51567e-08
1.49912e-08
1.95342e-08
1.40254e-08
2.4833e-08
1.20687e-08
3.12032e-08
8.90627e-09
3.88158e-08
4.29241e-09
4.78653e-08
-2.05237e-09
5.8572e-08
-1.04452e-08
7.11846e-08
-2.12446e-08
8.59829e-08
-3.48553e-08
1.0328e-07
-5.17321e-08
1.23423e-07
-7.23843e-08
1.46795e-07
-9.73798e-08
1.73809e-07
-1.2735e-07
2.0491e-07
-1.62992e-07
2.4056e-07
-2.05079e-07
2.81231e-07
-2.54475e-07
3.274e-07
-3.1218e-07
3.79551e-07
-3.79392e-07
4.3838e-07
-4.57819e-07
-5.48375e-07
5.0384e-07
6.31646e-11
9.42402e-10
2.74204e-10
2.75248e-09
6.6727e-10
4.56482e-09
1.28213e-09
6.33349e-09
2.16498e-09
8.00204e-09
3.36931e-09
9.50212e-09
4.95695e-09
1.0752e-08
6.99919e-09
1.16547e-08
9.57811e-09
1.20963e-08
1.2788e-08
1.19437e-08
1.67368e-08
1.10423e-08
2.15483e-08
9.21392e-09
2.73636e-08
6.25341e-09
3.43437e-08
1.92611e-09
4.26716e-08
-4.03545e-09
5.25543e-08
-1.19351e-08
6.42259e-08
-2.21168e-08
7.79498e-08
-3.49684e-08
9.40207e-08
-5.09262e-08
1.12766e-07
-7.04779e-08
1.34549e-07
-9.41666e-08
1.59762e-07
-1.22593e-07
1.8883e-07
-1.56417e-07
2.22196e-07
-1.96358e-07
2.60314e-07
-2.43197e-07
3.03616e-07
-2.97778e-07
3.525e-07
-3.61064e-07
4.07286e-07
-4.34178e-07
4.68567e-07
-5.19099e-07
-6.15462e-07
5.35653e-07
7.00253e-11
8.72377e-10
3.03726e-10
2.51878e-09
7.38568e-10
4.12998e-09
1.41807e-09
5.65398e-09
2.39267e-09
7.02744e-09
3.72064e-09
8.17415e-09
5.46915e-09
9.00346e-09
7.71556e-09
9.40829e-09
1.05486e-08
9.26322e-09
1.40701e-08
8.4222e-09
1.83963e-08
6.7161e-09
2.36602e-08
3.95009e-09
3.00129e-08
-9.93224e-11
3.76263e-08
-5.68734e-09
4.66951e-08
-1.31043e-08
5.74392e-08
-2.26791e-08
7.01059e-08
-3.47835e-08
8.49725e-08
-4.98351e-08
1.02348e-07
-6.83014e-08
1.22573e-07
-9.07029e-08
1.46021e-07
-1.17615e-07
1.73097e-07
-1.49669e-07
2.04229e-07
-1.8755e-07
2.39863e-07
-2.31992e-07
2.80436e-07
-2.8377e-07
3.26347e-07
-3.43689e-07
3.77897e-07
-4.12614e-07
4.35139e-07
-4.91419e-07
4.98176e-07
-5.82137e-07
-6.82717e-07
5.65431e-07
7.74866e-11
7.9489e-10
3.3566e-10
2.26061e-09
8.15387e-10
3.65026e-09
1.56404e-09
4.90533e-09
2.6364e-09
5.95508e-09
4.09563e-09
6.71493e-09
6.01442e-09
7.08467e-09
8.47625e-09
6.94646e-09
1.15768e-08
6.16272e-09
1.54253e-08
4.57367e-09
2.01466e-08
1.99476e-09
2.58828e-08
-1.78611e-09
3.27952e-08
-7.01167e-09
4.10663e-08
-1.39585e-08
5.09026e-08
-2.29405e-08
6.25361e-08
-3.43127e-08
7.62271e-08
-4.84744e-08
9.22653e-08
-6.58733e-08
1.10972e-07
-8.70077e-08
1.32698e-07
-1.1243e-07
1.57828e-07
-1.42745e-07
1.86771e-07
-1.78612e-07
2.1996e-07
-2.20738e-07
2.57836e-07
-2.69868e-07
3.00833e-07
-3.26767e-07
3.49338e-07
-3.92194e-07
4.03611e-07
-4.66887e-07
4.63515e-07
-5.51323e-07
5.28056e-07
-6.46678e-07
-7.46429e-07
5.91768e-07
8.56347e-11
7.09256e-10
3.70345e-10
1.9759e-09
8.9849e-10
3.12211e-09
1.72139e-09
4.08243e-09
2.89827e-09
4.7782e-09
4.49729e-09
5.11591e-09
6.59677e-09
4.98519e-09
9.28643e-09
4.2568e-09
1.26689e-08
2.78029e-09
1.68611e-08
3.81429e-10
2.19963e-08
-3.14047e-09
2.82258e-08
-8.01554e-09
3.57206e-08
-1.45065e-08
4.46742e-08
-2.29121e-08
5.53041e-08
-3.35704e-08
6.7854e-08
-4.68626e-08
8.25955e-08
-6.3216e-08
9.98295e-08
-8.31072e-08
1.19887e-07
-1.07065e-07
1.43127e-07
-1.3567e-07
1.69938e-07
-1.69556e-07
2.00732e-07
-2.09406e-07
2.35937e-07
-2.55943e-07
2.75991e-07
-3.09922e-07
3.21327e-07
-3.72104e-07
3.72363e-07
-4.43229e-07
4.29463e-07
-5.23987e-07
4.92948e-07
-6.14808e-07
5.63029e-07
-7.16758e-07
-8.28088e-07
6.44688e-07
9.45425e-11
6.14714e-10
4.08058e-10
1.66238e-09
9.88486e-10
2.54168e-09
1.89118e-09
3.17973e-09
3.1799e-09
3.48949e-09
4.92791e-09
3.36789e-09
7.21922e-09
2.69388e-09
1.01499e-08
1.32615e-09
1.38294e-08
-8.99277e-10
1.83826e-08
-4.17175e-09
2.39509e-08
-8.7088e-09
3.06947e-08
-1.47593e-08
3.87949e-08
-2.26067e-08
4.8455e-08
-3.25722e-08
5.99031e-08
-4.50185e-08
7.33932e-08
-6.03527e-08
8.9207e-08
-7.90297e-08
1.07654e-07
-1.01554e-07
1.29072e-07
-1.28483e-07
1.53824e-07
-1.60422e-07
1.82298e-07
-1.9803e-07
2.14899e-07
-2.42006e-07
2.52041e-07
-2.93086e-07
2.94142e-07
-3.52023e-07
3.41609e-07
-4.1957e-07
3.94828e-07
-4.96449e-07
4.54151e-07
-5.83311e-07
5.19956e-07
-6.80612e-07
5.92501e-07
-7.89304e-07
-9.07348e-07
6.71762e-07
1.04256e-10
5.10458e-10
4.4898e-10
1.31766e-09
1.08577e-09
1.90489e-09
2.0741e-09
2.1914e-09
3.48235e-09
2.08124e-09
5.38896e-09
1.46128e-09
7.88365e-09
1.99188e-10
1.10688e-08
-1.859e-09
1.50609e-08
-4.89143e-09
1.99924e-08
-9.10319e-09
2.6013e-08
-1.47294e-08
3.32918e-08
-2.20381e-08
4.2019e-08
-3.13339e-08
5.24078e-08
-4.2961e-08
6.46957e-08
-5.73063e-08
7.91457e-08
-7.48028e-08
9.60474e-08
-9.59315e-08
1.15717e-07
-1.21223e-07
1.38494e-07
-1.5126e-07
1.64742e-07
-1.8667e-07
1.9484e-07
-2.28128e-07
2.29178e-07
-2.76344e-07
2.68146e-07
-3.32053e-07
3.12119e-07
-3.95996e-07
3.61448e-07
-4.68899e-07
4.16428e-07
-5.51429e-07
4.77277e-07
-6.4416e-07
5.44128e-07
-7.47462e-07
6.16744e-07
-8.6192e-07
-9.8477e-07
6.94166e-07
1.14803e-10
3.95656e-10
4.93216e-10
9.39245e-10
1.19057e-09
1.20753e-09
2.27053e-09
1.11144e-09
3.80616e-09
5.45614e-10
5.88107e-09
-6.13629e-10
8.59073e-09
-2.51048e-09
1.20438e-08
-5.31211e-09
1.63638e-08
-9.21143e-09
2.16905e-08
-1.44299e-08
2.81817e-08
-2.12206e-08
3.6015e-08
-2.98713e-08
4.53891e-08
-4.07081e-08
5.65259e-08
-5.40978e-08
6.9671e-08
-7.04514e-08
8.50949e-08
-9.02267e-08
1.03093e-07
-1.13929e-07
1.23983e-07
-1.42114e-07
1.48106e-07
-1.75382e-07
1.75817e-07
-2.14381e-07
2.07481e-07
-2.59793e-07
2.43465e-07
-3.12328e-07
2.84119e-07
-3.72708e-07
3.29767e-07
-4.41644e-07
3.80674e-07
-5.19806e-07
4.37019e-07
-6.07774e-07
4.98863e-07
-7.06003e-07
5.66093e-07
-8.14693e-07
6.38168e-07
-9.33995e-07
-1.06065e-06
7.14046e-07
1.26192e-10
2.69465e-10
5.40789e-10
5.24648e-10
1.30292e-09
4.45398e-10
2.4805e-09
-6.613e-11
4.15127e-09
-1.12516e-09
6.40406e-09
-2.86642e-09
9.34005e-09
-5.44647e-09
1.30742e-08
-9.04625e-09
1.77367e-08
-1.38739e-08
2.34746e-08
-2.01678e-08
3.04534e-08
-2.81993e-08
3.88583e-08
-3.82763e-08
4.88963e-08
-5.0746e-08
6.07964e-08
-6.59979e-08
7.48112e-08
-8.44662e-08
9.12164e-08
-1.06632e-07
1.1031e-07
-1.33023e-07
1.3241e-07
-1.64214e-07
1.57851e-07
-2.00823e-07
1.86975e-07
-2.43506e-07
2.20129e-07
-2.92946e-07
2.57644e-07
-3.49843e-07
2.99826e-07
-4.14889e-07
3.46928e-07
-4.88747e-07
3.99122e-07
-5.72e-07
4.56469e-07
-6.6512e-07
5.18882e-07
-7.68417e-07
5.86057e-07
-8.81868e-07
6.57304e-07
-1.00524e-06
-1.13497e-06
7.31627e-07
1.3841e-10
1.31055e-10
5.91642e-10
7.14163e-11
1.42268e-09
-3.85638e-10
2.70368e-09
-1.34713e-09
4.51712e-09
-2.9386e-09
6.957e-09
-5.30629e-09
1.01301e-08
-8.61961e-09
1.41576e-08
-1.30737e-08
1.91762e-08
-1.88925e-08
2.53397e-08
-2.63314e-08
3.28209e-08
-3.56805e-08
4.18121e-08
-4.72676e-08
5.25271e-08
-6.1461e-08
6.52012e-08
-7.8672e-08
8.00918e-08
-9.93569e-08
9.74777e-08
-1.24018e-07
1.17657e-07
-1.53202e-07
1.40942e-07
-1.875e-07
1.67659e-07
-2.27539e-07
1.98131e-07
-2.73979e-07
2.32678e-07
-3.27493e-07
2.7159e-07
-3.88755e-07
3.15118e-07
-4.58417e-07
3.63436e-07
-5.37065e-07
4.16618e-07
-6.25183e-07
4.74617e-07
-7.23119e-07
5.37208e-07
-8.31009e-07
6.03942e-07
-9.48602e-07
6.74056e-07
-1.07536e-06
-1.20754e-06
7.46627e-07
1.5143e-10
-2.03751e-11
6.45652e-10
-4.22805e-10
1.54953e-09
-1.28951e-09
2.9395e-09
-2.7371e-09
4.90271e-09
-4.90181e-09
7.53827e-09
-7.94185e-09
1.09585e-08
-1.20399e-08
1.52905e-08
-1.74057e-08
2.06771e-08
-2.42791e-08
2.72787e-08
-3.2933e-08
3.52744e-08
-4.36762e-08
4.4863e-08
-5.68561e-08
5.62638e-08
-7.28618e-08
6.97169e-08
-9.21251e-08
8.54825e-08
-1.15123e-07
1.0384e-07
-1.42375e-07
1.25083e-07
-1.74445e-07
1.49517e-07
-2.11934e-07
1.77452e-07
-2.55474e-07
2.09189e-07
-3.05716e-07
2.45012e-07
-3.63315e-07
2.85167e-07
-4.2891e-07
3.29836e-07
-5.03086e-07
3.79111e-07
-5.8634e-07
4.32977e-07
-6.79049e-07
4.91277e-07
-7.81418e-07
5.53658e-07
-8.9339e-07
6.19569e-07
-1.01451e-06
6.88205e-07
-1.14399e-06
-1.27805e-06
7.58713e-07
1.65206e-10
-1.85581e-10
7.02633e-10
-9.60231e-10
1.68303e-09
-2.26991e-09
3.18708e-09
-4.24115e-09
5.30657e-09
-7.0213e-09
8.14559e-09
-1.07809e-08
1.18218e-08
-1.57161e-08
1.64679e-08
-2.20518e-08
2.22327e-08
-3.00438e-08
2.92823e-08
-3.99826e-08
3.78015e-08
-5.21954e-08
4.79945e-08
-6.70491e-08
6.00848e-08
-8.49521e-08
7.43154e-08
-1.06356e-07
9.09473e-08
-1.31754e-07
1.10257e-07
-1.61684e-07
1.32532e-07
-1.9672e-07
1.58065e-07
-2.37467e-07
1.87145e-07
-2.84554e-07
2.20046e-07
-3.38617e-07
2.57011e-07
-4.0028e-07
2.9823e-07
-4.70129e-07
3.43815e-07
-5.4867e-07
3.93778e-07
-6.36304e-07
4.48014e-07
-7.33285e-07
5.0625e-07
-8.39654e-07
5.68032e-07
-9.55172e-07
6.32739e-07
-1.07922e-06
6.99533e-07
-1.21079e-06
-1.34614e-06
7.67623e-07
1.79685e-10
-3.65266e-10
7.62345e-10
-1.54289e-09
1.8226e-09
-3.33017e-09
3.44534e-09
-5.86389e-09
5.72687e-09
-9.30283e-09
8.77612e-09
-1.38301e-08
1.27159e-08
-1.96559e-08
1.7684e-08
-2.70199e-08
2.38346e-08
-3.61945e-08
3.13392e-08
-4.74872e-08
4.03874e-08
-6.12436e-08
5.11872e-08
-7.78489e-08
6.39651e-08
-9.773e-08
7.8965e-08
-1.21356e-07
9.6446e-08
-1.49235e-07
1.16679e-07
-1.81917e-07
1.39941e-07
-2.19982e-07
1.66509e-07
-2.64035e-07
1.96647e-07
-3.14692e-07
2.30593e-07
-3.72564e-07
2.68545e-07
-4.38233e-07
3.10631e-07
-5.12215e-07
3.56891e-07
-5.9493e-07
4.07261e-07
-6.86673e-07
4.61535e-07
-7.87559e-07
5.19341e-07
-8.97461e-07
5.8015e-07
-1.01598e-06
6.43275e-07
-1.14234e-06
7.07868e-07
-1.27538e-06
-1.41146e-06
7.73192e-07
1.94796e-10
-5.60061e-10
8.245e-10
-2.1726e-09
1.96756e-09
-4.47323e-09
3.71297e-09
-7.60931e-09