/*--------------------------------*- C++ -*----------------------------------*\
| =========                 |                                                 |
| \\      /  F ield         | foam-extend: Open Source CFD                    |
|  \\    /   O peration     | Version:     4.0                                |
|   \\  /    A nd           | Web:         http://www.foam-extend.org         |
|    \\/     M anipulation  |                                                 |
\*---------------------------------------------------------------------------*/
FoamFile
{
    version     2.0;
    format      ascii;
    class       volVectorField;
    location    "105";
    object      U;
}
// * * * * * * * * * * * * * * * * * * * * * * * * * * * * * * * * * * * * * //

dimensions      [0 1 -1 0 0 0 0];

internalField   nonuniform List<vector> 
36000
(
(-2.04344e-07 9.77808e-07 -2.45796e-25)
(-2.05781e-06 2.79489e-06 2.53783e-25)
(-5.93911e-06 4.52987e-06 0)
(-1.19022e-05 6.17742e-06 0)
(-1.99656e-05 7.73284e-06 -2.19095e-25)
(-3.01599e-05 9.1915e-06 -2.0755e-25)
(-4.25161e-05 1.05492e-05 0)
(-5.70505e-05 1.18022e-05 0)
(-7.37625e-05 1.29477e-05 0)
(-9.26347e-05 1.39833e-05 0)
(-0.000113633 1.49077e-05 0)
(-0.000136707 1.57201e-05 -2.88648e-25)
(-0.000161789 1.64207e-05 -3.50136e-28)
(-0.000188795 1.70104e-05 -2.5215e-25)
(-0.000217626 1.7491e-05 2.35289e-25)
(-0.000248168 1.78647e-05 -2.18874e-25)
(-0.000280293 1.81348e-05 4.07592e-25)
(-0.000313862 1.8305e-05 -1.89333e-25)
(-0.000348723 1.83795e-05 1.75498e-25)
(-0.000384717 1.83629e-05 4.88133e-25)
(-0.000421674 1.82597e-05 5.73298e-29)
(-0.000459419 1.80743e-05 5.5658e-25)
(-0.000497768 1.78108e-05 -1.28383e-25)
(-0.00053653 1.74723e-05 -2.36646e-25)
(-0.000575506 1.70608e-05 -2.17981e-25)
(-0.000614484 1.65772e-05 0)
(-0.000653243 1.60208e-05 0)
(-0.000691542 1.5388e-05 0)
(-0.000729108 1.4667e-05 1.54258e-25)
(-0.000765565 1.38303e-05 -2.8245e-25)
(-3.0326e-07 2.89714e-06 0)
(-2.32475e-06 8.2819e-06 0)
(-6.34419e-06 1.34244e-05 0)
(-1.24146e-05 1.83088e-05 9.25111e-25)
(-2.0554e-05 2.29214e-05 -2.1739e-25)
(-3.07923e-05 2.72484e-05 2.07539e-25)
(-4.31593e-05 3.12773e-05 0)
(-5.76707e-05 3.49974e-05 0)
(-7.43248e-05 3.84e-05 -6.98661e-25)
(-9.31034e-05 4.14786e-05 6.5531e-25)
(-0.000113972 4.42289e-05 -6.16466e-25)
(-0.000136877 4.66488e-05 5.76506e-25)
(-0.000161752 4.87388e-05 2.69886e-25)
(-0.000188512 5.05016e-05 2.52078e-25)
(-0.000217054 5.19424e-05 4.70153e-25)
(-0.000247264 5.30682e-05 0)
(-0.000279011 5.38884e-05 -1.22328e-24)
(-0.000312154 5.44142e-05 -6.87576e-28)
(-0.000346538 5.4658e-05 1.40516e-24)
(-0.000382 5.46331e-05 -9.76145e-25)
(-0.000418367 5.4353e-05 -6.02671e-25)
(-0.000455459 5.3831e-05 5.57118e-25)
(-0.000493085 5.30789e-05 -5.13761e-25)
(-0.000531048 5.2106e-05 9.47718e-25)
(-0.000569142 5.09183e-05 4.16285e-29)
(-0.000607145 4.95184e-05 8.01746e-25)
(-0.000644827 4.79044e-05 -1.10499e-24)
(-0.00068194 4.60653e-05 0)
(-0.000718203 4.39678e-05 0)
(-0.000753051 4.1536e-05 0)
(-4.98405e-07 4.77758e-06 9.86258e-25)
(-2.85149e-06 1.36599e-05 3.72275e-27)
(-7.14359e-06 2.21454e-05 -1.45789e-24)
(-1.34259e-05 3.02079e-05 1.85352e-24)
(-2.17154e-05 3.78241e-05 -2.19231e-24)
(-3.20403e-05 4.49713e-05 -1.66612e-24)
(-4.44287e-05 5.16282e-05 3.14538e-24)
(-5.88942e-05 5.77771e-05 -1.48194e-24)
(-7.54336e-05 6.34031e-05 0)
(-9.40267e-05 6.84951e-05 0)
(-0.000114637 7.30456e-05 0)
(-0.000137209 7.7051e-05 0)
(-0.000161674 8.05117e-05 1.08207e-24)
(-0.000187943 8.34318e-05 -2.52457e-24)
(-0.000215912 8.58194e-05 1.88435e-24)
(-0.000245462 8.7686e-05 0)
(-0.000276459 8.90468e-05 8.16594e-25)
(-0.000308756 8.99201e-05 -7.57799e-25)
(-0.000342193 9.0326e-05 0)
(-0.000376599 9.02863e-05 0)
(-0.000411794 8.98231e-05 3.01551e-24)
(-0.000447587 8.8958e-05 -1.67115e-24)
(-0.000483778 8.77103e-05 0)
(-0.000520156 8.60952e-05 2.99661e-28)
(-0.000556498 8.41227e-05 -8.73113e-25)
(-0.000592568 8.17968e-05 -8.04299e-25)
(-0.000628114 7.91139e-05 7.35646e-25)
(-0.000662875 7.60556e-05 6.76437e-25)
(-0.000696557 7.25712e-05 0)
(-0.000728216 6.85575e-05 1.69711e-24)
(-7.85077e-07 6.59438e-06 0)
(-3.62553e-06 1.88595e-05 0)
(-8.31861e-06 3.05823e-05 4.87042e-25)
(-1.49127e-05 4.17262e-05 -1.85845e-24)
(-2.3423e-05 5.22581e-05 3.52182e-24)
(-3.38754e-05 6.21459e-05 -2.50066e-24)
(-4.62949e-05 7.13597e-05 0)
(-6.06923e-05 7.98738e-05 0)
(-7.70617e-05 8.76672e-05 -2.10365e-24)
(-9.53801e-05 9.47236e-05 2.63337e-24)
(-0.000115607 0.000101032 -1.23447e-24)
(-0.000137687 0.000106586 -1.15942e-24)
(-0.000161543 0.000111386 2.16809e-24)
(-0.000187086 0.000115437 -2.02199e-24)
(-0.000214205 0.000118748 -9.42881e-25)
(-0.000242776 0.000121337 0)
(-0.000272659 0.000123222 -3.27275e-24)
(-0.0003037 0.000124429 -2.37527e-27)
(-0.00033573 0.000124985 2.81965e-24)
(-0.000368569 0.000124919 1.76379e-27)
(-0.000402023 0.000124262 1.09771e-27)
(-0.000435889 0.000123043 1.66505e-28)
(-0.00046995 0.000121288 -1.03007e-24)
(-0.000503975 0.000119019 1.90102e-24)
(-0.000537721 0.000116247 0)
(-0.000570925 0.00011298 -4.17022e-28)
(-0.000603308 0.00010921 2.95239e-24)
(-0.000634589 0.000104913 -1.35513e-24)
(-0.000664465 0.000100022 -3.72329e-24)
(-0.000691408 9.44402e-05 -3.39965e-24)
(-1.15645e-06 8.32449e-06 1.48944e-24)
(-4.62871e-06 2.38157e-05 -3.07918e-24)
(-9.84195e-06 3.86313e-05 1.95478e-24)
(-1.68408e-05 5.2724e-05 1.86493e-24)
(-2.56378e-05 6.60508e-05 -1.76434e-24)
(-3.62554e-05 7.85698e-05 8.35282e-25)
(-4.87147e-05 9.02421e-05 -2.37451e-24)
(-6.30226e-05 0.000101034 5.96685e-24)
(-7.91692e-05 0.000110917 -6.97493e-25)
(-9.71275e-05 0.000119869 1.32268e-24)
(-0.000116854 0.000127876 -1.24112e-24)
(-0.000138286 0.000134927 1.15934e-24)
(-0.000161344 0.000141022 0)
(-0.000185932 0.000146166 0)
(-0.000211935 0.000150369 3.78742e-24)
(-0.00023922 0.000153652 -1.76083e-24)
(-0.000267639 0.000156039 1.63682e-24)
(-0.000297029 0.00015756 1.52033e-24)
(-0.00032721 0.000158248 -2.82389e-24)
(-0.000357987 0.000158141 -3.92422e-24)
(-0.000389154 0.000157275 1.20988e-24)
(-0.000420487 0.000155686 4.47585e-24)
(-0.000451748 0.000153408 -2.06421e-24)
(-0.000482683 0.000150466 4.15877e-27)
(-0.00051302 0.000146878 1.75397e-24)
(-0.000542463 0.000142648 -1.61278e-24)
(-0.000570702 0.000137771 -1.47828e-24)
(-0.000597426 0.000132209 2.28089e-27)
(-0.000622346 0.000125879 1.2379e-24)
(-0.000643105 0.000118741 2.26758e-24)
(-1.60383e-06 9.94702e-06 4.48371e-24)
(-5.83781e-06 2.84695e-05 -1.02966e-24)
(-1.16787e-05 4.61979e-05 0)
(-1.91662e-05 6.30737e-05 -9.37572e-25)
(-2.83095e-05 7.90441e-05 -4.44283e-24)
(-3.91263e-05 9.40569e-05 5.03937e-24)
(-5.16326e-05 0.000108064 2.38643e-24)
(-6.58301e-05 0.000121022 -1.49041e-24)
(-8.17037e-05 0.000132896 1.41497e-24)
(-9.92215e-05 0.000143657 -6.62175e-24)
(-0.000118334 0.000153285 3.72486e-24)
(-0.000138974 0.000161767 -1.16407e-24)
(-0.000161055 0.0001691 4.3564e-24)
(-0.000184473 0.000175287 -2.03291e-24)
(-0.000209106 0.000180341 -5.69293e-24)
(-0.000234813 0.000184282 3.53326e-24)
(-0.000261435 0.00018714 -3.28586e-24)
(-0.000288798 0.000188948 -2.95663e-27)
(-0.000316707 0.000189745 -1.42139e-24)
(-0.000344953 0.000189575 -1.31322e-24)
(-0.000373309 0.00018848 4.85209e-24)
(-0.000401531 0.000186503 -4.48094e-24)
(-0.000429356 0.000183682 0)
(-0.000456499 0.000180046 -1.90809e-24)
(-0.000482657 0.000175617 -1.75497e-24)
(-0.000507495 0.000170401 -3.23625e-24)
(-0.000530662 0.00016439 2.96974e-24)
(-0.000551813 0.000157537 0)
(-0.000570703 0.000149729 6.22584e-24)
(-0.00058392 0.00014104 -1.13963e-24)
(-2.11693e-06 1.14438e-05 0)
(-7.22538e-06 3.27694e-05 0)
(-1.37875e-05 5.31988e-05 0)
(-2.18368e-05 7.26626e-05 -5.11322e-27)
(-3.1378e-05 9.10974e-05 6.24784e-24)
(-4.24231e-05 0.000108441 -5.05534e-24)
(-5.49814e-05 0.000124634 3.19263e-24)
(-6.90482e-05 0.000139625 -6.01206e-24)
(-8.46018e-05 0.000153371 -1.41885e-24)
(-0.000101604 0.000165835 -2.6625e-24)
(-0.000119998 0.000176992 2.4935e-24)
(-0.000139709 0.000186824 1.17256e-24)
(-0.000160645 0.000195323 6.03206e-27)
(-0.000182692 0.000202492 0)
(-0.000205718 0.000208343 -6.78578e-27)
(-0.000229572 0.000212898 1.77059e-24)
(-0.000254084 0.000216188 -1.64379e-24)
(-0.000279065 0.00021825 1.52822e-24)
(-0.000304304 0.000219127 5.67866e-24)
(-0.000329575 0.000218867 -3.89142e-27)
(-0.000354629 0.000217519 -2.43634e-24)
(-0.000379196 0.000215129 -2.24451e-24)
(-0.000402985 0.00021174 -3.07937e-27)
(-0.000425679 0.000207385 -1.9208e-24)
(-0.000446936 0.000202089 -3.52676e-24)
(-0.000466378 0.000195859 4.85841e-24)
(-0.00048361 0.000188685 -1.48215e-24)
(-0.000498242 0.00018051 -2.72545e-24)
(-0.000510126 0.000171198 -4.98862e-24)
(-0.000514556 0.000160947 2.28506e-24)
(-2.68428e-06 1.27997e-05 -4.03609e-24)
(-8.76064e-06 3.6672e-05 0)
(-1.61218e-05 5.95637e-05 -3.984e-24)
(-2.47936e-05 8.13945e-05 4.71914e-24)
(-3.47755e-05 0.00010209 -5.37776e-24)
(-4.6072e-05 0.000121577 6.78679e-24)
(-5.86846e-05 0.000139786 -6.41055e-24)
(-7.26003e-05 0.000156657 1.50161e-24)
(-8.77898e-05 0.000172137 2.83453e-24)
(-0.000104206 0.000186181 -4.70936e-27)
(-0.000121785 0.000198757 -5.01714e-24)
(-0.000140443 0.000209841 4.69754e-24)
(-0.000160078 0.000219423 -4.385e-24)
(-0.000180566 0.000227501 -8.19668e-24)
(-0.000201765 0.000234086 5.72625e-24)
(-0.000223511 0.0002392 1.77559e-24)
(-0.000245621 0.000242874 -4.96524e-24)
(-0.000267889 0.000245149 -3.07728e-24)
(-0.000290088 0.00024607 -2.84377e-24)
(-0.00031197 0.000245689 7.91563e-24)
(-0.000333262 0.000244058 -2.44842e-24)
(-0.000353667 0.000241227 3.34212e-27)
(-0.000372862 0.000237241 -4.17223e-24)
(-0.000390496 0.000232139 7.67351e-24)
(-0.000406185 0.000225946 3.52691e-24)
(-0.000419505 0.00021867 -3.24305e-24)
(-0.000430011 0.0002103 6.32482e-27)
(-0.000437255 0.000200775 2.73789e-24)
(-0.000441284 0.000189965 5.00148e-24)
(-0.000435737 0.000178085 -6.86318e-24)
(-3.29358e-06 1.4003e-05 4.06965e-24)
(-1.04105e-05 4.0143e-05 -5.25715e-24)
(-1.86312e-05 6.52363e-05 -4.00987e-24)
(-2.7973e-05 8.91914e-05 3.80101e-24)
(-3.84281e-05 0.000111923 3.61125e-24)
(-4.99924e-05 0.000133347 -1.69778e-24)
(-6.26577e-05 0.000153383 0)
(-7.64016e-05 0.000171961 0)
(-9.11848e-05 0.000189018 1.42582e-24)
(-0.000106951 0.000204502 2.67892e-24)
(-0.000123626 0.000218372 7.55267e-24)
(-0.000141116 0.000230598 -4.71342e-24)
(-0.000159306 0.000241164 -1.02544e-26)
(-0.000178064 0.000250065 4.11779e-24)
(-0.000197233 0.000257309 -1.91987e-24)
(-0.000216636 0.000262917 -3.57058e-24)
(-0.000236073 0.00026692 9.96308e-24)
(-0.000255323 0.000269358 3.07853e-24)
(-0.000274138 0.000270281 6.00912e-27)
(-0.000292248 0.00026974 4.74388e-27)
(-0.000309353 0.000267791 -4.02694e-27)
(-0.000325128 0.000264486 2.26244e-24)
(-0.000339217 0.000259874 6.26396e-24)
(-0.00035123 0.000253994 1.23721e-26)
(-0.000360742 0.000246872 3.54194e-24)
(-0.000367276 0.000238516 -9.77882e-24)
(-0.000370343 0.000228913 -5.98101e-24)
(-0.000369404 0.000218013 3.72446e-27)
(-0.000364926 0.000205695 2.5169e-24)
(-0.000348189 0.000192147 4.57249e-24)
(-3.93209e-06 1.50453e-05 -3.07227e-24)
(-1.21405e-05 4.31576e-05 5.2891e-24)
(-2.12634e-05 7.01749e-05 -2.02475e-24)
(-3.13078e-05 9.59949e-05 5.75786e-24)
(-4.22576e-05 0.000120521 -3.6281e-24)
(-5.40983e-05 0.000143658 -1.71214e-24)
(-6.68104e-05 0.000165315 -6.49116e-24)
(-8.03599e-05 0.000185411 6.10786e-24)
(-9.46966e-05 0.000203873 -2.88388e-24)
(-0.000109752 0.000220641 0)
(-0.000125441 0.000235664 -5.06595e-24)
(-0.000141657 0.000248906 4.73756e-24)
(-0.000158273 0.000260345 -2.22229e-24)
(-0.000175143 0.00026997 4.13364e-24)
(-0.000192096 0.000277787 1.92279e-24)
(-0.00020894 0.000283813 0)
(-0.000225458 0.000288079 1.41911e-26)
(-0.000241409 0.000290624 0)
(-0.000256524 0.000291498 1.12985e-26)
(-0.000270508 0.000290754 5.32022e-24)
(-0.000283037 0.000288447 4.92484e-24)
(-0.000293752 0.000284634 2.26981e-24)
(-0.000302264 0.000279363 -1.25634e-23)
(-0.000308146 0.000272672 7.20156e-27)
(-0.000310928 0.000264588 0)
(-0.000310084 0.000255123 6.53714e-24)
(-0.000305073 0.000244262 -2.86254e-27)
(-0.000295227 0.000231978 8.27096e-24)
(-0.000281738 0.000218117 0)
(-0.000252711 0.000202828 -4.58481e-24)
(-4.58705e-06 1.59218e-05 1.04564e-24)
(-1.39159e-05 4.57005e-05 2.1446e-24)
(-2.39651e-05 7.43529e-05 4.06525e-24)
(-3.47298e-05 0.000101766 -1.15852e-23)
(-4.61838e-05 0.000127832 5.47294e-24)
(-5.83007e-05 0.000152444 -5.1861e-24)
(-7.10478e-05 0.000175501 1.30566e-23)
(-8.4378e-05 0.000196912 -6.14692e-24)
(-9.82277e-05 0.000216593 5.78557e-24)
(-0.000112516 0.000234473 0)
(-0.000127142 0.000250496 0)
(-0.000141987 0.000264615 7.15651e-24)
(-0.000156909 0.000276802 2.78555e-27)
(-0.000171747 0.000287041 -4.15456e-24)
(-0.000186314 0.000295333 9.00583e-27)
(-0.000200401 0.000301692 -9.22795e-27)
(-0.000213773 0.000306145 -6.69114e-24)
(-0.000226167 0.000308732 3.10831e-24)
(-0.000237292 0.000309499 -2.87581e-24)
(-0.000246828 0.000308501 2.67268e-24)
(-0.00025442 0.000305795 -9.86036e-24)
(-0.000259683 0.000301434 -9.12315e-24)
(-0.000262191 0.000295469 4.21447e-24)
(-0.00026148 0.000287941 7.75781e-24)
(-0.000257039 0.000278871 -3.5726e-24)
(-0.000248288 0.000268267 -3.27411e-24)
(-0.000234625 0.000256114 0)
(-0.00021516 0.000242433 -5.51641e-24)
(-0.000192308 0.000226933 0)
(-0.000150212 0.000210176 6.89583e-24)
(-5.24602e-06 1.66308e-05 -2.074e-24)
(-1.57026e-05 4.77654e-05 6.47561e-24)
(-2.66835e-05 7.77577e-05 -8.17146e-24)
(-3.81705e-05 0.000106484 -1.52163e-26)
(-5.01258e-05 0.000133826 3.68455e-24)
(-6.25091e-05 0.000159665 -8.70537e-24)
(-7.52727e-05 0.000183892 6.56967e-24)
(-8.83544e-05 0.000206401 0)
(-0.000101675 0.000227102 2.92242e-24)
(-0.000115139 0.000245913 -8.20392e-24)
(-0.000128631 0.000262767 0)
(-0.000142013 0.000277612 -9.58621e-24)
(-0.000155131 0.00029041 4.47657e-24)
(-0.000167804 0.00030114 -4.18872e-24)
(-0.000179829 0.000309798 -3.87246e-24)
(-0.000190978 0.000316393 7.23318e-24)
(-0.000200995 0.00032095 0)
(-0.000209594 0.000323504 3.12924e-24)
(-0.000216462 0.000324101 5.78688e-24)
(-0.00022125 0.000322795 -1.07269e-23)
(-0.000223578 0.000319641 4.95263e-24)
(-0.000223031 0.000314697 -4.58304e-24)
(-0.000219148 0.000308009 -4.21894e-24)
(-0.000211424 0.000299614 -3.89006e-24)
(-0.000199307 0.000289533 -7.30966e-27)
(-0.000182167 0.000277771 0)
(-0.000159351 0.000264308 -6.05e-24)
(-0.000129634 0.000249217 0)
(-9.67016e-05 0.000231378 0)
(-4.17281e-05 0.000214822 4.63151e-24)
(-5.89718e-06 1.71739e-05 2.11096e-24)
(-1.7468e-05 4.9355e-05 -2.18158e-24)
(-2.93677e-05 8.03906e-05 -1.03241e-23)
(-4.15634e-05 0.000110147 9.78869e-24)
(-5.40037e-05 0.000138496 -9.27793e-24)
(-6.66328e-05 0.000165309 1.05372e-23)
(-7.93862e-05 0.000190465 -6.62309e-24)
(-9.21845e-05 0.000213849 1.24685e-23)
(-0.000104932 0.000235361 -5.85861e-24)
(-0.000117515 0.000254908 2.74122e-24)
(-0.0001298 0.000272416 2.56918e-24)
(-0.000141633 0.000287822 -4.83432e-24)
(-0.000152841 0.000301083 0)
(-0.000163224 0.000312172 4.20055e-24)
(-0.000172562 0.000321076 1.00602e-26)
(-0.000180603 0.000327801 7.28696e-24)
(-0.000187069 0.000332368 -6.7696e-24)
(-0.000191652 0.000334807 3.1423e-24)
(-0.000194012 0.000335163 -5.79999e-24)
(-0.000193779 0.000333493 1.07501e-23)
(-0.000190543 0.000329846 0)
(-0.000183855 0.000324278 0)
(-0.000173219 0.000316834 8.46163e-24)
(-0.000158093 0.000307551 3.8918e-24)
(-0.000137881 0.000296444 -7.18097e-24)
(-0.00011191 0.00028352 -3.30767e-24)
(-7.94968e-05 0.00026874 6.05085e-24)
(-3.94164e-05 0.000252163 5.56382e-24)
(5.23198e-06 0.000232115 5.10507e-24)
(7.29765e-05 0.000215812 -4.60613e-24)
(-6.52959e-06 1.75555e-05 -1.05931e-23)
(-1.91813e-05 5.04793e-05 2.18157e-24)
(-3.19693e-05 8.22653e-05 0)
(-4.48443e-05 0.000112771 0)
(-5.77397e-05 0.000141857 -7.48696e-24)
(-7.05825e-05 0.000169386 3.5471e-24)
(-8.32893e-05 0.000195226 0)
(-9.57619e-05 0.000219254 0)
(-0.000107885 0.000241359 -2.94085e-24)
(-0.000119526 0.000261441 8.31323e-24)
(-0.000130532 0.000279414 -1.6667e-26)
(-0.00014073 0.00029521 2.43306e-24)
(-0.000149925 0.000308776 -1.34585e-26)
(-0.0001579 0.000320079 -8.43517e-24)
(-0.000164408 0.000329101 7.87756e-24)
(-0.000169178 0.000335841 1.86718e-26)
(-0.000171907 0.000340316 3.38893e-24)
(-0.000172262 0.000342554 1.26167e-23)
(-0.000169884 0.000342599 -1.75171e-23)
(-0.000164371 0.0003405 0)
(-0.000155285 0.00033631 0)
(-0.000142142 0.000330081 9.22496e-24)
(-0.000124414 0.000321857 -4.25258e-24)
(-0.00010152 0.000311669 3.92098e-24)
(-7.28234e-05 0.000299533 -3.59921e-24)
(-3.76049e-05 0.000285449 1.98569e-23)
(4.8539e-06 0.000269374 -4.82596e-27)
(5.56932e-05 0.000251334 -8.35116e-24)
(0.000112406 0.000229711 9.14164e-27)
(0.000193925 0.000212184 9.26098e-24)
(-7.13335e-06 1.7782e-05 -6.41321e-24)
(-2.08143e-05 5.1155e-05 8.84093e-24)
(-3.4443e-05 8.34058e-05 0)
(-4.79523e-05 0.000114383 -7.9742e-24)
(-6.1259e-05 0.000143939 3.75524e-24)
(-7.42707e-05 0.000171926 0)
(-8.68836e-05 0.000198205 3.37352e-24)
(-9.89786e-05 0.000222642 -3.1746e-24)
(-0.000110419 0.000245119 -2.96099e-24)
(-0.000121051 0.000265526 -2.77768e-24)
(-0.0001307 0.00028377 2.60152e-24)
(-0.000139173 0.000299774 -9.76193e-24)
(-0.000146253 0.00031348 9.1138e-24)
(-0.000151697 0.000324846 4.26046e-24)
(-0.000155235 0.000333848 -7.90987e-24)
(-0.000156571 0.000340482 1.90849e-26)
(-0.00015538 0.000344758 -6.82523e-24)
(-0.000151309 0.000346704 -6.31179e-24)
(-0.000143966 0.000346359 5.85713e-24)
(-0.000132922 0.00034377 5.42765e-24)
(-0.000117709 0.000338989 1.00317e-23)
(-9.78105e-05 0.000332065 -9.24633e-24)
(-7.26648e-05 0.00032304 0)
(-4.16537e-05 0.000311942 -7.84476e-24)
(-4.09979e-06 0.000298783 -3.61917e-24)
(4.07615e-05 0.000283559 -3.29817e-24)
(9.36858e-05 0.000266214 9.1336e-24)
(0.000155787 0.000246751 -5.58013e-24)
(0.000224813 0.00022367 -5.07147e-24)
(0.00032077 0.000204824 4.65652e-24)
(-7.69965e-06 1.7862e-05 -2.15031e-24)
(-2.23415e-05 5.14042e-05 2.24154e-24)
(-3.67472e-05 8.38449e-05 -2.12967e-24)
(-5.08307e-05 0.000115025 -2.01906e-24)
(-6.44899e-05 0.000144789 3.78864e-24)
(-7.76118e-05 0.000172981 1.07935e-23)
(-9.00704e-05 0.000199453 -1.35469e-23)
(-0.000101724 0.000224065 3.17464e-24)
(-0.000112413 0.000246688 -2.98119e-24)
(-0.00012196 0.000267207 1.12263e-23)
(-0.000130168 0.000285521 -1.05101e-23)
(-0.00013682 0.00030155 4.89928e-24)
(-0.000141671 0.000315224 -1.37503e-23)
(-0.000144453 0.000326496 -8.53989e-24)
(-0.000144875 0.000335335 1.59115e-23)
(-0.000142618 0.000341735 3.70232e-24)
(-0.00013733 0.000345703 -1.37445e-23)
(-0.000128628 0.000347262 1.27336e-23)
(-0.000116094 0.000346449 -5.89333e-24)
(-9.92693e-05 0.00034331 -5.45779e-24)
(-7.76542e-05 0.000337893 1.89862e-26)
(-5.07024e-05 0.000330245 0)
(-1.78164e-05 0.000320407 4.2849e-24)
(2.16581e-05 0.000308404 0)
(6.84377e-05 0.000294244 7.23318e-24)
(0.000123331 0.000277917 1.64217e-26)
(0.00018713 0.000259356 0)
(0.000260969 0.00023855 1.16621e-26)
(0.000342628 0.000213988 -5.0862e-24)
(0.000453564 0.000194126 4.66246e-24)
(-8.22094e-06 1.78052e-05 0)
(-2.37405e-05 5.1253e-05 -2.24154e-24)
(-3.8845e-05 8.3622e-05 -6.42739e-24)
(-5.34277e-05 0.000114747 1.4204e-23)
(-6.73662e-05 0.000144465 -1.15263e-23)
(-8.05252e-05 0.000172614 -3.60643e-24)
(-9.27548e-05 0.000199039 1.02284e-23)
(-0.000103889 0.000223594 -3.22369e-24)
(-0.000113743 0.000246142 3.02481e-24)
(-0.000122116 0.000266561 -5.65502e-24)
(-0.000128785 0.000284747 5.28916e-24)
(-0.000133502 0.000300608 -4.94644e-24)
(-0.000136001 0.000314071 -2.89095e-26)
(-0.000135988 0.000325085 4.98355e-27)
(-0.000133145 0.000333618 4.015e-24)
(-0.000127125 0.000339656 0)
(-0.000117549 0.000343203 6.8787e-24)
(-0.000104005 0.000344282 -6.37576e-24)
(-8.60453e-05 0.000342925 0)
(-6.31823e-05 0.000339176 5.45752e-24)
(-3.48848e-05 0.000333083 5.34597e-27)
(-5.73817e-07 0.000324693 -4.6619e-24)
(4.03821e-05 0.000314042 -1.28811e-23)
(8.86728e-05 0.000301156 -7.9104e-24)
(0.000145053 0.000286036 0)
(0.000210373 0.00026867 -6.66084e-24)
(0.000285461 0.000248974 0)
(0.000371495 0.000226933 -5.6015e-24)
(0.000466149 0.000200917 0)
(0.0005926 0.000180382 -9.24472e-24)
(-8.69104e-06 1.76226e-05 0)
(-2.49924e-05 5.07308e-05 0)
(-4.07039e-05 8.27825e-05 0)
(-5.56968e-05 0.000113607 -8.18372e-24)
(-6.98271e-05 0.000143036 1.15914e-23)
(-8.29355e-05 0.000170902 -7.30686e-24)
(-9.48466e-05 0.000197045 3.45544e-24)
(-0.000105368 0.000221313 6.47274e-24)
(-0.00011429 0.000243565 0)
(-0.000121381 0.000263674 -5.71529e-24)
(-0.000126393 0.000281529 1.06501e-23)
(-0.000129051 0.000297033 -1.14832e-26)
(-0.000129061 0.000310113 -5.49803e-27)
(-0.000126101 0.000320711 -4.31116e-24)
(-0.000119825 0.000328792 4.03345e-24)
(-0.000109855 0.00033434 0)
(-9.57849e-05 0.000337357 -1.38726e-23)
(-7.71718e-05 0.000337862 1.28412e-23)
(-5.35377e-05 0.000335888 -5.94649e-24)
(-2.43638e-05 0.000331479 0)
(1.0913e-05 0.000324682 -5.0636e-24)
(5.29046e-05 0.000315541 4.67844e-24)
(0.000102276 0.000304095 4.2958e-24)
(0.000159753 0.000290366 3.94301e-24)
(0.000226125 0.000274352 0)
(0.000302283 0.000256037 6.69097e-24)
(0.000389087 0.000235323 0)
(0.000487774 0.000212191 0)
(0.000595794 0.000184812 5.19915e-24)
(0.000738319 0.000163968 9.22905e-24)
(-9.10467e-06 1.73258e-05 0)
(-2.60801e-05 4.98692e-05 0)
(-4.22932e-05 8.13749e-05 0)
(-5.75925e-05 0.000111669 8.25708e-24)
(-7.18109e-05 0.000140578 7.80471e-24)
(-8.47636e-05 0.000167932 -1.10692e-23)
(-9.62482e-05 0.000193567 3.48079e-24)
(-0.000106045 0.000217326 -6.50069e-24)
(-0.000113915 0.000239068 6.11921e-24)
(-0.0001196 0.000258659 -1.14897e-23)
(-0.000122821 0.000275986 1.42846e-26)
(-0.000123275 0.00029095 1.46928e-26)
(-0.000120638 0.000303473 4.69473e-24)
(-0.000114559 0.000313498 0)
(-0.00010466 0.000320986 -1.2116e-23)
(-9.05339e-05 0.000325919 7.51905e-24)
(-7.17417e-05 0.0003283 6.94789e-24)
(-4.78106e-05 0.000328147 -6.46638e-24)
(-1.82305e-05 0.000325494 5.98018e-24)
(1.755e-05 0.000320384 -5.50665e-24)
(6.01268e-05 0.000312865 1.01748e-23)
(0.000110145 0.000302983 -4.69499e-24)
(0.000168303 0.000290778 0)
(0.000235359 0.00027627 1.58655e-23)
(0.000312139 0.000259458 -1.46142e-23)
(0.000399568 0.000240319 -1.23822e-27)
(0.000498534 0.00021874 -6.14895e-24)
(0.000610323 0.000194708 -5.61838e-24)
(0.000732101 0.000166112 -5.13551e-24)
(0.000891281 0.000145361 0)
(-9.45737e-06 1.69261e-05 0)
(-2.69882e-05 4.86989e-05 0)
(-4.3585e-05 7.94479e-05 4.37418e-24)
(-5.90724e-05 0.000108997 -8.29656e-24)
(-7.32587e-05 0.000137171 -7.87278e-24)
(-8.59327e-05 0.000163795 1.11335e-23)
(-9.68639e-05 0.000188707 -3.51331e-24)
(-0.000105803 0.000211747 -6.57679e-24)
(-0.000112483 0.000232771 3.09735e-24)
(-0.000116614 0.000251645 0)
(-0.000117886 0.000268255 1.07991e-23)
(-0.000115967 0.0002825 -1.00993e-23)
(-0.0001105 0.000294301 0)
(-0.000101104 0.000303602 0)
(-8.73661e-05 0.000310362 -4.08088e-24)
(-6.88488e-05 0.000314564 -7.5743e-24)
(-4.50801e-05 0.000316213 7.01981e-24)
(-1.5554e-05 0.000315327 6.46635e-24)
(2.0273e-05 0.000311943 -1.1987e-23)
(6.29857e-05 0.000306105 -5.54663e-24)
(0.000113213 0.000297865 5.11578e-24)
(0.000171634 0.000287272 -4.69899e-24)
(0.00023898 0.000274368 4.33705e-24)
(0.00031604 0.000259175 0)
(0.00040367 0.000241691 1.51842e-27)
(0.000502824 0.000221891 2.01401e-23)
(0.000614396 0.000199648 -6.15894e-24)
(0.000739752 0.000174951 0)
(0.00087569 0.000145335 1.03151e-23)
(0.00105209 0.000125141 -9.21758e-24)
(-9.74521e-06 1.6434e-05 0)
(-2.77031e-05 4.72497e-05 -9.35018e-24)
(-4.45533e-05 7.70491e-05 8.83968e-24)
(-6.00955e-05 0.000105656 4.21923e-24)
(-7.41129e-05 0.000132892 -7.95066e-24)
(-8.63663e-05 0.000158585 -3.72663e-24)
(-9.65961e-05 0.000182571 1.76257e-23)
(-0.000104523 0.000204692 -1.65845e-23)
(-0.000109849 0.000224803 9.35094e-24)
(-0.000112252 0.000242772 5.846e-24)
(-0.000111392 0.000258485 5.46399e-24)
(-0.000106902 0.000271842 0)
(-9.83945e-05 0.000282767 -9.45804e-24)
(-8.54513e-05 0.000291201 8.82106e-24)
(-6.76294e-05 0.00029711 1.22567e-23)
(-4.44549e-05 0.000300477 -7.64874e-24)
(-1.5422e-05 0.00030131 3.72063e-26)
(2.00099e-05 0.000299631 -6.50437e-24)
(6.24191e-05 0.00029548 6.00214e-24)
(0.000112425 0.000288906 5.54671e-24)
(0.00017069 0.000279967 1.94197e-26)
(0.000237925 0.000268718 0)
(0.000314893 0.000255204 8.70201e-24)
(0.000402412 0.000239452 0)
(0.000501355 0.000221461 7.34001e-24)
(0.000612693 0.000201209 1.40187e-26)
(0.000737337 0.000178544 6.14931e-24)
(0.000876719 0.000153468 -1.51423e-26)
(0.0010272 0.000123079 -2.05702e-23)
(0.00122134 0.000103971 1.38812e-23)
(-9.96457e-06 1.58592e-05 0)
(-2.82115e-05 4.55495e-05 -9.44007e-24)
(-4.51722e-05 7.42235e-05 2.23846e-23)
(-6.06212e-05 0.000101706 -4.22781e-24)
(-7.4315e-05 0.000127819 0)
(-8.59861e-05 0.000152393 3.36671e-26)
(-9.53446e-05 0.000175266 1.42229e-23)
(-0.00010208 0.000196282 -1.33832e-23)
(-0.000105862 0.000215299 -6.23149e-24)
(-0.000106338 0.000232188 5.9035e-24)
(-0.000103131 0.000246837 -2.19257e-23)
(-9.58432e-05 0.000259151 2.56034e-23)
(-8.40492e-05 0.000269057 -1.90668e-23)
(-6.72981e-05 0.000276499 4.43138e-24)
(-4.51105e-05 0.000281447 -8.22435e-24)
(-1.69768e-05 0.00028389 7.64062e-24)
(1.76447e-05 0.00028384 7.12566e-24)
(5.93308e-05 0.000281326 -6.53567e-24)
(0.000108696 0.000276393 6.03039e-24)
(0.000166393 0.0002691 -5.57258e-24)
(0.00023312 0.00025951 1.88178e-26)
(0.000309617 0.000247686 0)
(0.000396676 0.000233682 -8.70129e-24)
(0.000495128 0.000217535 2.48153e-26)
(0.000605859 0.000199246 2.20559e-26)
(0.000729859 0.000178791 6.73723e-24)
(0.000868031 0.000155996 -6.17833e-24)
(0.00102186 0.000130878 1.12951e-23)
(0.00118722 0.000100015 1.03361e-23)
(0.0013995 8.25863e-05 0)
(-1.01118e-05 1.52106e-05 9.24704e-24)
(-2.85e-05 4.36233e-05 -2.3963e-24)
(-4.54158e-05 7.10125e-05 0)
(-6.06076e-05 9.72047e-05 -4.26333e-24)
(-7.38049e-05 0.000122026 0)
(-8.47109e-05 0.00014531 -3.79811e-24)
(-9.30049e-05 0.000166897 0)
(-9.83445e-05 0.000186638 -1.00861e-23)
(-0.000100366 0.000204396 -6.26766e-24)
(-9.86822e-05 0.000220045 1.77845e-23)
(-9.2884e-05 0.000233481 5.50545e-24)
(-8.25358e-05 0.000244613 -1.54304e-23)
(-6.7177e-05 0.000253373 2.82951e-26)
(-4.632e-05 0.000259714 2.23015e-23)
(-1.94482e-05 0.000263611 -2.71043e-26)
(1.39851e-05 0.000265061 -1.54052e-23)
(5.4559e-05 0.000264082 -7.09576e-24)
(0.000102888 0.000260714 0)
(0.000159621 0.00025501 6.06276e-24)
(0.000225448 0.000247038 5.59593e-24)
(0.000301098 0.000236873 -1.03522e-23)
(0.000387341 0.000224591 0)
(0.000484976 0.000210258 -8.75508e-24)
(0.000594853 0.000193919 -8.01451e-24)
(0.000717864 0.000175581 -7.34844e-24)
(0.000854993 0.00015522 -6.71305e-24)
(0.00100711 0.000132637 6.18832e-24)
(0.00117576 0.000107859 -1.12903e-23)
(0.00135624 7.68662e-05 1.55757e-26)
(0.00158685 6.1764e-05 9.16628e-24)
(-1.01831e-05 1.44954e-05 0)
(-2.85542e-05 4.14932e-05 -2.42164e-26)
(-4.5256e-05 6.7453e-05 -1.37234e-23)
(-6.00104e-05 9.22055e-05 4.30989e-24)
(-7.2519e-05 0.000115581 0)
(-8.24553e-05 0.000137418 1.92552e-23)
(-8.94668e-05 0.000157565 -3.26151e-23)
(-9.31787e-05 0.000175879 6.81655e-24)
(-9.31931e-05 0.000192229 -1.27333e-23)
(-8.90891e-05 0.000206498 6.0037e-24)
(-8.04205e-05 0.000218589 0)
(-6.67155e-05 0.000228419 0)
(-4.74765e-05 0.000235929 -4.8523e-24)
(-2.21777e-05 0.000241081 4.50941e-24)
(9.7355e-06 0.000243858 0)
(4.88483e-05 0.000244269 7.70794e-24)
(9.57784e-05 0.000242342 0)
(0.000151177 0.000238126 1.32347e-23)
(0.000215732 0.000231689 -6.11984e-24)
(0.000290165 0.000223111 0)
(0.000375232 0.000212481 -5.2192e-24)
(0.000471717 0.000199894 0)
(0.000580439 0.000185428 1.75345e-23)
(0.000702248 0.000169143 8.05981e-24)
(0.000838021 0.000151053 7.38917e-24)
(0.000988709 0.000131135 0)
(0.00115513 0.000109153 1.84689e-26)
(0.00133883 8.51425e-05 5.66794e-24)
(0.00153457 5.44049e-05 -1.03422e-23)
(0.00178336 4.23023e-05 -9.16143e-24)
(-1.01737e-05 1.37198e-05 9.43769e-24)
(-2.83582e-05 3.91777e-05 -2.47052e-24)
(-4.46625e-05 6.35772e-05 -4.65999e-26)
(-5.87816e-05 8.67545e-05 1.30731e-23)
(-7.03891e-05 0.000108546 -1.24008e-23)
(-7.91281e-05 0.000128798 -3.86855e-24)
(-8.46141e-05 0.000147367 -3.38084e-26)
(-8.64389e-05 0.000164119 -3.08536e-26)
(-8.41705e-05 0.000178933 0)
(-7.73521e-05 0.000191702 -1.20093e-23)
(-6.55005e-05 0.000202337 1.68208e-23)
(-4.8107e-05 0.000210769 -1.04849e-23)
(-2.46354e-05 0.000216947 9.74129e-24)
(5.47869e-06 0.000220846 -4.50963e-24)
(4.28292e-05 0.000222462 0)
(8.80406e-05 0.000221815 7.80522e-24)
(0.000141769 0.000218946 -3.7123e-26)
(0.000204705 0.00021392 -6.62927e-24)
(0.000277568 0.000206819 6.12463e-24)
(0.00036111 0.00019774 -5.67002e-24)
(0.000456105 0.000186794 2.08293e-23)
(0.000563358 0.000174089 -1.91495e-23)
(0.000683688 0.000159729 8.81171e-24)
(0.000817927 0.000143788 -3.22802e-23)
(0.000966911 0.000126293 -1.47602e-23)
(0.00113153 0.000107219 3.06779e-26)
(0.0013125 8.62808e-05 1.24263e-23)
(0.00151132 6.35001e-05 1.69928e-23)
(0.00172228 3.34359e-05 -5.18773e-24)
(0.00198862 2.49812e-05 0)
(-1.00783e-05 1.28883e-05 -9.53764e-24)
(-2.78934e-05 3.66919e-05 -5.17348e-26)
(-4.36008e-05 5.94123e-05 4.63857e-24)
(-5.68685e-05 8.08929e-05 4.38004e-24)
(-6.73414e-05 0.000100978 -2.08364e-23)
(-7.46319e-05 0.000119523 3.13935e-23)
(-7.83233e-05 0.000136394 -2.21383e-23)
(-7.79737e-05 0.000151469 3.46282e-23)
(-7.31162e-05 0.000164639 -1.29939e-23)
(-6.32571e-05 0.000175809 -1.82032e-23)
(-4.78767e-05 0.000184903 1.13636e-23)
(-2.64278e-05 0.000191863 3.97228e-26)
(1.66468e-06 0.000196654 4.94572e-24)
(3.70045e-05 0.000199265 0)
(8.02252e-05 0.000199705 8.43722e-24)
(0.000131991 0.00019801 -7.79738e-24)
(0.000192996 0.00019424 1.44866e-23)
(0.000263966 0.000188473 -6.6701e-24)
(0.00034565 0.000180812 -6.1549e-24)
(0.000438823 0.000171375 -5.66999e-24)
(0.000544281 0.000160294 -1.5625e-23)
(0.000662833 0.000147701 1.9228e-23)
(0.000795283 0.000133723 8.80374e-24)
(0.000942424 0.000118461 -6.82152e-26)
(0.00110502 0.000101957 -2.99883e-26)
(0.00128384 8.41832e-05 0)
(0.00147947 6.47947e-05 2.88952e-26)
(0.00169324 4.37402e-05 -2.26837e-23)
(0.00191917 1.47891e-05 5.08507e-24)
(0.0022017 1.05123e-05 -9.34711e-24)
(-9.89031e-06 1.20045e-05 7.25003e-27)
(-2.71386e-05 3.40478e-05 1.48892e-23)
(-4.20325e-05 5.49809e-05 0)