/*--------------------------------*- C++ -*----------------------------------*\
| =========                 |                                                 |
| \\      /  F ield         | foam-extend: Open Source CFD                    |
|  \\    /   O peration     | Version:     4.0                                |
|   \\  /    A nd           | Web:         http://www.foam-extend.org         |
|    \\/     M anipulation  |                                                 |
\*---------------------------------------------------------------------------*/
FoamFile
{
    version     2.0;
    format      ascii;
    class       volScalarField;
    location    "65";
    object      p;
}
// * * * * * * * * * * * * * * * * * * * * * * * * * * * * * * * * * * * * * //

dimensions      [0 2 -2 0 0 0 0];

internalField   nonuniform List<scalar> 
36000
(
-7.50845e-06
-7.54836e-06
-7.59059e-06
-7.62958e-06
-7.66588e-06
-7.70016e-06
-7.73251e-06
-7.76286e-06
-7.79123e-06
-7.81764e-06
-7.84217e-06
-7.86492e-06
-7.88598e-06
-7.90545e-06
-7.92345e-06
-7.94002e-06
-7.95517e-06
-7.96887e-06
-7.98098e-06
-7.99126e-06
-7.99937e-06
-8.00476e-06
-8.00671e-06
-8.00428e-06
-7.99625e-06
-7.98111e-06
-7.95702e-06
-7.92175e-06
-7.87239e-06
-7.80556e-06
-7.52103e-06
-7.56038e-06
-7.60204e-06
-7.64051e-06
-7.67634e-06
-7.71019e-06
-7.74214e-06
-7.77213e-06
-7.80016e-06
-7.82627e-06
-7.85054e-06
-7.87306e-06
-7.89392e-06
-7.91323e-06
-7.93109e-06
-7.94756e-06
-7.96265e-06
-7.97632e-06
-7.98844e-06
-7.9988e-06
-8.00701e-06
-8.01258e-06
-8.01477e-06
-8.01264e-06
-8.005e-06
-7.99033e-06
-7.96683e-06
-7.93236e-06
-7.88371e-06
-7.81615e-06
-7.54598e-06
-7.58425e-06
-7.62477e-06
-7.66222e-06
-7.69712e-06
-7.73011e-06
-7.76126e-06
-7.79053e-06
-7.8179e-06
-7.84342e-06
-7.86716e-06
-7.88921e-06
-7.90967e-06
-7.92865e-06
-7.94624e-06
-7.9625e-06
-7.97746e-06
-7.99107e-06
-8.00322e-06
-8.01369e-06
-8.02212e-06
-8.02801e-06
-8.03066e-06
-8.02912e-06
-8.02223e-06
-8.00848e-06
-7.98615e-06
-7.95321e-06
-7.90596e-06
-7.83695e-06
-7.58285e-06
-7.61952e-06
-7.65838e-06
-7.69432e-06
-7.72785e-06
-7.75957e-06
-7.78956e-06
-7.81775e-06
-7.84414e-06
-7.86878e-06
-7.89173e-06
-7.91308e-06
-7.93293e-06
-7.9514e-06
-7.96857e-06
-7.98451e-06
-7.99924e-06
-8.01275e-06
-8.02491e-06
-8.03552e-06
-8.04425e-06
-8.0506e-06
-8.05387e-06
-8.05317e-06
-8.04734e-06
-8.0349e-06
-8.01423e-06
-7.98347e-06
-7.93831e-06
-7.8671e-06
-7.63096e-06
-7.66556e-06
-7.70227e-06
-7.73627e-06
-7.76801e-06
-7.79808e-06
-7.82653e-06
-7.85332e-06
-7.87843e-06
-7.90189e-06
-7.92379e-06
-7.94421e-06
-7.96325e-06
-7.98102e-06
-7.99761e-06
-8.0131e-06
-8.02751e-06
-8.04083e-06
-8.05296e-06
-8.06371e-06
-8.07277e-06
-8.07964e-06
-8.08367e-06
-8.08399e-06
-8.07946e-06
-8.06865e-06
-8.05002e-06
-8.022e-06
-7.97967e-06
-7.90533e-06
-7.68945e-06
-7.72158e-06
-7.75569e-06
-7.78733e-06
-7.81693e-06
-7.84499e-06
-7.87159e-06
-7.89665e-06
-7.92018e-06
-7.94221e-06
-7.96281e-06
-7.98206e-06
-8.00007e-06
-8.01695e-06
-8.03278e-06
-8.04765e-06
-8.06161e-06
-8.07465e-06
-8.08667e-06
-8.09751e-06
-8.10687e-06
-8.11429e-06
-8.11914e-06
-8.12057e-06
-8.1175e-06
-8.10852e-06
-8.09223e-06
-8.06732e-06
-8.02859e-06
-7.9499e-06
-7.75732e-06
-7.78661e-06
-7.81776e-06
-7.8467e-06
-7.87381e-06
-7.89957e-06
-7.924e-06
-7.94706e-06
-7.96873e-06
-7.98906e-06
-8.00811e-06
-8.02597e-06
-8.04273e-06
-8.0585e-06
-8.07339e-06
-8.08748e-06
-8.10083e-06
-8.11343e-06
-8.12523e-06
-8.13606e-06
-8.14565e-06
-8.15356e-06
-8.15921e-06
-8.16178e-06
-8.16023e-06
-8.15319e-06
-8.13941e-06
-8.11779e-06
-8.08316e-06
-7.99869e-06
-7.83345e-06
-7.85962e-06
-7.88749e-06
-7.91344e-06
-7.9378e-06
-7.96097e-06
-7.98297e-06
-8.00377e-06
-8.02335e-06
-8.04173e-06
-8.059e-06
-8.07522e-06
-8.0905e-06
-8.10496e-06
-8.11869e-06
-8.1318e-06
-8.14434e-06
-8.15634e-06
-8.16775e-06
-8.17842e-06
-8.1881e-06
-8.19639e-06
-8.20274e-06
-8.20638e-06
-8.20632e-06
-8.20126e-06
-8.19e-06
-8.17159e-06
-8.14161e-06
-8.04908e-06
-7.91664e-06
-7.93948e-06
-7.96384e-06
-7.98658e-06
-8.00796e-06
-8.02832e-06
-8.04768e-06
-8.06598e-06
-8.08323e-06
-8.09945e-06
-8.1147e-06
-8.12906e-06
-8.14264e-06
-8.15555e-06
-8.16791e-06
-8.17981e-06
-8.19134e-06
-8.20252e-06
-8.21332e-06
-8.22363e-06
-8.2332e-06
-8.24169e-06
-8.24857e-06
-8.25316e-06
-8.25446e-06
-8.25118e-06
-8.24221e-06
-8.2269e-06
-8.20278e-06
-8.09696e-06
-8.00568e-06
-8.02505e-06
-8.04575e-06
-8.06511e-06
-8.08334e-06
-8.10072e-06
-8.11724e-06
-8.13287e-06
-8.1476e-06
-8.16144e-06
-8.17446e-06
-8.18674e-06
-8.19839e-06
-8.20952e-06
-8.22026e-06
-8.23073e-06
-8.24099e-06
-8.25111e-06
-8.26105e-06
-8.27074e-06
-8.27996e-06
-8.28841e-06
-8.2956e-06
-8.30086e-06
-8.30323e-06
-8.30141e-06
-8.29438e-06
-8.28191e-06
-8.26653e-06
-8.13546e-06
-8.09936e-06
-8.1152e-06
-8.13216e-06
-8.14804e-06
-8.16302e-06
-8.17728e-06
-8.19084e-06
-8.20364e-06
-8.21566e-06
-8.22694e-06
-8.23753e-06
-8.24752e-06
-8.25701e-06
-8.26613e-06
-8.27502e-06
-8.28378e-06
-8.29252e-06
-8.30128e-06
-8.31008e-06
-8.31887e-06
-8.32745e-06
-8.33553e-06
-8.34268e-06
-8.34825e-06
-8.35137e-06
-8.35072e-06
-8.3451e-06
-8.33409e-06
-8.33247e-06
-8.16185e-06
-8.19654e-06
-8.20885e-06
-8.22205e-06
-8.23444e-06
-8.24609e-06
-8.25717e-06
-8.26766e-06
-8.2775e-06
-8.28669e-06
-8.29524e-06
-8.30322e-06
-8.31071e-06
-8.31783e-06
-8.32471e-06
-8.33149e-06
-8.33829e-06
-8.34521e-06
-8.35231e-06
-8.35967e-06
-8.3672e-06
-8.37475e-06
-8.3821e-06
-8.38883e-06
-8.39437e-06
-8.39787e-06
-8.39809e-06
-8.39377e-06
-8.3822e-06
-8.38823e-06
-8.21897e-06
-8.29615e-06
-8.30501e-06
-8.31452e-06
-8.32342e-06
-8.33176e-06
-8.33961e-06
-8.34696e-06
-8.35376e-06
-8.36e-06
-8.36569e-06
-8.37089e-06
-8.3757e-06
-8.38026e-06
-8.38468e-06
-8.3891e-06
-8.39364e-06
-8.39843e-06
-8.40356e-06
-8.40909e-06
-8.41498e-06
-8.42114e-06
-8.42738e-06
-8.43334e-06
-8.43844e-06
-8.44193e-06
-8.44251e-06
-8.43929e-06
-8.43104e-06
-8.43009e-06
-8.27423e-06
-8.39728e-06
-8.40281e-06
-8.40873e-06
-8.41423e-06
-8.41929e-06
-8.42393e-06
-8.42812e-06
-8.43181e-06
-8.43501e-06
-8.43773e-06
-8.44002e-06
-8.44202e-06
-8.44382e-06
-8.44554e-06
-8.44732e-06
-8.44931e-06
-8.45164e-06
-8.45444e-06
-8.45778e-06
-8.46168e-06
-8.46611e-06
-8.47087e-06
-8.47565e-06
-8.47992e-06
-8.48291e-06
-8.48344e-06
-8.4809e-06
-8.47435e-06
-8.46967e-06
-8.31774e-06
-8.49913e-06
-8.5015e-06
-8.504e-06
-8.50622e-06
-8.5081e-06
-8.50958e-06
-8.51063e-06
-8.5112e-06
-8.5113e-06
-8.51096e-06
-8.51025e-06
-8.50927e-06
-8.5081e-06
-8.50686e-06
-8.50571e-06
-8.50485e-06
-8.50441e-06
-8.50456e-06
-8.5054e-06
-8.507e-06
-8.50931e-06
-8.5122e-06
-8.51539e-06
-8.51839e-06
-8.52046e-06
-8.52048e-06
-8.51799e-06
-8.51207e-06
-8.50623e-06
-8.35135e-06
-8.60104e-06
-8.60047e-06
-8.59975e-06
-8.59885e-06
-8.59766e-06
-8.59608e-06
-8.59405e-06
-8.59152e-06
-8.58849e-06
-8.58504e-06
-8.58121e-06
-8.57703e-06
-8.57264e-06
-8.56823e-06
-8.56395e-06
-8.56e-06
-8.55656e-06
-8.55378e-06
-8.55181e-06
-8.55074e-06
-8.55057e-06
-8.55121e-06
-8.55241e-06
-8.55373e-06
-8.55446e-06
-8.5535e-06
-8.55051e-06
-8.54456e-06
-8.53831e-06
-8.37677e-06
-8.70254e-06
-8.69927e-06
-8.69555e-06
-8.6917e-06
-8.68758e-06
-8.68302e-06
-8.67796e-06
-8.67237e-06
-8.66623e-06
-8.65958e-06
-8.65248e-06
-8.64502e-06
-8.63733e-06
-8.6296e-06
-8.62201e-06
-8.61476e-06
-8.60803e-06
-8.60203e-06
-8.59695e-06
-8.59289e-06
-8.5899e-06
-8.58793e-06
-8.58677e-06
-8.58602e-06
-8.585e-06
-8.58264e-06
-8.57867e-06
-8.57213e-06
-8.56559e-06
-8.39482e-06
-8.8034e-06
-8.79767e-06
-8.7912e-06
-8.78461e-06
-8.77769e-06
-8.77026e-06
-8.76225e-06
-8.75361e-06
-8.74435e-06
-8.73449e-06
-8.7241e-06
-8.71328e-06
-8.70218e-06
-8.69099e-06
-8.6799e-06
-8.66912e-06
-8.65888e-06
-8.64941e-06
-8.64093e-06
-8.63359e-06
-8.62748e-06
-8.62258e-06
-8.61872e-06
-8.61555e-06
-8.61241e-06
-8.60826e-06
-8.60289e-06
-8.59524e-06
-8.58838e-06
-8.40614e-06
-8.90354e-06
-8.8956e-06
-8.88662e-06
-8.87748e-06
-8.86794e-06
-8.85777e-06
-8.84689e-06
-8.83527e-06
-8.8229e-06
-8.80982e-06
-8.7961e-06
-8.78185e-06
-8.76725e-06
-8.75246e-06
-8.73771e-06
-8.72322e-06
-8.70927e-06
-8.69612e-06
-8.68402e-06
-8.67315e-06
-8.66365e-06
-8.65553e-06
-8.64869e-06
-8.64279e-06
-8.63721e-06
-8.63092e-06
-8.62377e-06
-8.61455e-06
-8.60725e-06
-8.41134e-06
-9.00305e-06
-8.99313e-06
-8.98188e-06
-8.97039e-06
-8.95838e-06
-8.9456e-06
-8.93195e-06
-8.9174e-06
-8.90197e-06
-8.88567e-06
-8.8686e-06
-8.85088e-06
-8.83269e-06
-8.8142e-06
-8.79566e-06
-8.77733e-06
-8.75951e-06
-8.74251e-06
-8.72658e-06
-8.71198e-06
-8.69887e-06
-8.68731e-06
-8.67724e-06
-8.66835e-06
-8.66006e-06
-8.65132e-06
-8.64203e-06
-8.63084e-06
-8.62293e-06
-8.41111e-06
-9.1022e-06
-9.09052e-06
-9.07721e-06
-9.06353e-06
-9.0492e-06
-9.03392e-06
-9.0176e-06
-9.0002e-06
-8.98173e-06
-8.96224e-06
-8.94181e-06
-8.92059e-06
-8.89875e-06
-8.87648e-06
-8.85406e-06
-8.83179e-06
-8.80999e-06
-8.78899e-06
-8.7691e-06
-8.7506e-06
-8.73371e-06
-8.71854e-06
-8.70504e-06
-8.69296e-06
-8.68171e-06
-8.67022e-06
-8.65847e-06
-8.6449e-06
-8.63621e-06
-8.40627e-06
-9.20136e-06
-9.18811e-06
-9.17292e-06
-9.15722e-06
-9.1407e-06
-9.12303e-06
-9.1041e-06
-9.08391e-06
-9.06245e-06
-9.03979e-06
-9.01602e-06
-8.99128e-06
-8.96575e-06
-8.93966e-06
-8.91331e-06
-8.88702e-06
-8.86116e-06
-8.83607e-06
-8.81212e-06
-8.78962e-06
-8.76883e-06
-8.74991e-06
-8.73283e-06
-8.71738e-06
-8.70294e-06
-8.68844e-06
-8.67388e-06
-8.65753e-06
-8.64783e-06
-8.3977e-06
-9.30106e-06
-9.28637e-06
-9.26945e-06
-9.25186e-06
-9.23324e-06
-9.21327e-06
-9.19182e-06
-9.16889e-06
-9.14449e-06
-9.11868e-06
-9.09158e-06
-9.06331e-06
-9.03407e-06
-9.00415e-06
-8.97384e-06
-8.94351e-06
-8.91353e-06
-8.88431e-06
-8.85624e-06
-8.82968e-06
-8.80492e-06
-8.78215e-06
-8.76138e-06
-8.74237e-06
-8.72453e-06
-8.70674e-06
-8.68902e-06
-8.66941e-06
-8.65837e-06
-8.38634e-06
-9.40188e-06
-9.38587e-06
-9.36732e-06
-9.34792e-06
-9.32729e-06
-9.30507e-06
-9.28115e-06
-9.25552e-06
-9.22822e-06
-9.1993e-06
-9.16887e-06
-9.13708e-06
-9.10416e-06
-9.0704e-06
-9.03614e-06
-9.00176e-06
-8.96766e-06
-8.9343e-06
-8.90209e-06
-8.87144e-06
-8.84267e-06
-8.81598e-06
-8.79139e-06
-8.76867e-06
-8.74721e-06
-8.72582e-06
-8.70453e-06
-8.68111e-06
-8.66814e-06
-8.37321e-06
-9.50448e-06
-9.4872e-06
-9.46708e-06
-9.44592e-06
-9.42331e-06
-9.39889e-06
-9.37254e-06
-9.34425e-06
-9.31407e-06
-9.28206e-06
-9.24832e-06
-9.21304e-06
-9.17646e-06
-9.1389e-06
-9.1007e-06
-9.06229e-06
-9.02411e-06
-8.98662e-06
-8.95029e-06
-8.91556e-06
-8.88275e-06
-8.85207e-06
-8.82356e-06
-8.79696e-06
-8.77164e-06
-8.74629e-06
-8.72091e-06
-8.693e-06
-8.67715e-06
-8.3596e-06
-9.60954e-06
-9.591e-06
-9.56933e-06
-9.54641e-06
-9.52185e-06
-9.49523e-06
-9.46646e-06
-9.43553e-06
-9.40249e-06
-9.3674e-06
-9.33038e-06
-9.29164e-06
-9.25144e-06
-9.2101e-06
-9.16802e-06
-9.12563e-06
-9.08341e-06
-9.04185e-06
-9.00145e-06
-8.96263e-06
-8.92575e-06
-8.89103e-06
-8.85848e-06
-8.82783e-06
-8.79836e-06
-8.76865e-06
-8.73856e-06
-8.70537e-06
-8.68501e-06
-8.34752e-06
-9.71775e-06
-9.69792e-06
-9.67464e-06
-9.64995e-06
-9.6234e-06
-9.59458e-06
-9.56339e-06
-9.52982e-06
-9.49392e-06
-9.45575e-06
-9.41548e-06
-9.37332e-06
-9.32954e-06
-9.28449e-06
-9.23858e-06
-9.19228e-06
-9.14608e-06
-9.10051e-06
-9.05605e-06
-9.01316e-06
-8.9722e-06
-8.93338e-06
-8.89668e-06
-8.86177e-06
-8.82783e-06
-8.79329e-06
-8.75774e-06
-8.71835e-06
-8.68992e-06
-8.33851e-06
-9.82976e-06
-9.80855e-06
-9.78361e-06
-9.75707e-06
-9.72849e-06
-9.69742e-06
-9.66378e-06
-9.62755e-06
-9.58877e-06
-9.54756e-06
-9.50405e-06
-9.4585e-06
-9.41118e-06
-9.36248e-06
-9.31282e-06
-9.26268e-06
-9.21258e-06
-9.16304e-06
-9.11457e-06
-9.06762e-06
-9.02255e-06
-8.97955e-06
-8.93856e-06
-8.89915e-06
-8.86038e-06
-8.82051e-06
-8.77855e-06
-8.73122e-06
-8.68424e-06
-8.32504e-06
-9.94618e-06
-9.92348e-06
-9.89675e-06
-9.86827e-06
-9.83758e-06
-9.8042e-06
-9.76805e-06
-9.72912e-06
-9.68746e-06
-9.64319e-06
-9.59648e-06
-9.54757e-06
-9.49678e-06
-9.44448e-06
-9.39114e-06
-9.33723e-06
-9.28327e-06
-9.22981e-06
-9.17736e-06
-9.12636e-06
-9.07715e-06
-9.02987e-06
-8.98441e-06
-8.94027e-06
-8.89635e-06
-8.8508e-06
-8.80147e-06
-8.74328e-06
-8.6568e-06
-8.29978e-06
-1.00675e-05
-1.00432e-05
-1.00145e-05
-9.98399e-06
-9.95108e-06
-9.91532e-06
-9.87659e-06
-9.8349e-06
-9.79034e-06
-9.74301e-06
-9.6931e-06
-9.64087e-06
-9.58665e-06
-9.53082e-06
-9.47384e-06
-9.41622e-06
-9.35847e-06
-9.30113e-06
-9.24472e-06
-9.18965e-06
-9.13621e-06
-9.08452e-06
-9.0344e-06
-8.98528e-06
-8.93607e-06
-8.88503e-06
-8.8287e-06
-8.76069e-06
-8.63096e-06
-8.38338e-06
-1.01943e-05
-1.01681e-05
-1.01373e-05
-1.01046e-05
-1.00694e-05
-1.00311e-05
-9.9897e-06
-9.94522e-06
-9.89771e-06
-9.84731e-06
-9.79422e-06
-9.73869e-06
-9.68107e-06
-9.62174e-06
-9.56119e-06
-9.49989e-06
-9.4384e-06
-9.37721e-06
-9.31682e-06
-9.25761e-06
-9.19983e-06
-9.14353e-06
-9.08849e-06
-9.03415e-06
-8.97954e-06
-8.9236e-06
-8.86307e-06
-8.7985e-06
-8.69318e-06
-8.92617e-06
-1.03267e-05
-1.02986e-05
-1.02655e-05
-1.02304e-05
-1.01927e-05
-1.01518e-05
-1.01077e-05
-1.00603e-05
-1.00098e-05
-9.95633e-06
-9.90004e-06
-9.84122e-06
-9.78022e-06
-9.71744e-06
-9.65335e-06
-9.58843e-06
-9.52319e-06
-9.45814e-06
-9.39372e-06
-9.33026e-06
-9.26795e-06
-9.20676e-06
-9.14639e-06
-9.08626e-06
-9.0254e-06
-8.96322e-06
-8.89665e-06
-8.83123e-06
-8.73874e-06
-9.0274e-06
-1.04651e-05
-1.04348e-05
-1.03992e-05
-1.03616e-05
-1.03212e-05
-1.02776e-05
-1.02306e-05
-1.01804e-05
-1.01268e-05
-1.00702e-05
-1.00107e-05
-9.94862e-06
-9.88426e-06
-9.81804e-06
-9.75043e-06
-9.68189e-06
-9.61291e-06
-9.54395e-06
-9.47539e-06
-9.40751e-06
-9.3404e-06
-9.27393e-06
-9.20769e-06
-9.14099e-06
-9.07285e-06
-9.00253e-06
-8.92698e-06
-8.85262e-06
-8.74521e-06
-8.97098e-06
-1.06096e-05
-1.05769e-05
-1.05386e-05
-1.04982e-05
-1.04551e-05
-1.04087e-05
-1.03588e-05
-1.03054e-05
-1.02488e-05
-1.0189e-05
-1.01263e-05
-1.00609e-05
-9.99322e-06
-9.92358e-06
-9.85245e-06
-9.78027e-06
-9.7075e-06
-9.63454e-06
-9.5617e-06
-9.48916e-06
-9.41691e-06
-9.34469e-06
-9.27195e-06
-9.19782e-06
-9.12125e-06
-9.04113e-06
-8.95412e-06
-8.86572e-06
-8.73801e-06
-8.90712e-06
-1.07601e-05
-1.07248e-05
-1.06836e-05
-1.06404e-05
-1.05944e-05
-1.0545e-05
-1.0492e-05
-1.04356e-05
-1.03758e-05
-1.03128e-05
-1.02469e-05
-1.01782e-05
-1.01071e-05
-1.0034e-05
-9.95935e-06
-9.88349e-06
-9.80683e-06
-9.72972e-06
-9.65238e-06
-9.57488e-06
-9.49709e-06
-9.41858e-06
-9.3386e-06
-9.25622e-06
-9.17e-06
-9.07858e-06
-8.97837e-06
-8.8734e-06
-8.72571e-06
-8.84416e-06
-1.09166e-05
-1.08785e-05
-1.08343e-05
-1.0788e-05
-1.07389e-05
-1.06864e-05
-1.06303e-05
-1.05707e-05
-1.05078e-05
-1.04415e-05
-1.03723e-05
-1.03003e-05
-1.02258e-05
-1.01493e-05
-1.0071e-05
-9.99135e-06
-9.91068e-06
-9.82923e-06
-9.74712e-06
-9.66429e-06
-9.58045e-06
-9.49501e-06
-9.4071e-06
-9.31548e-06
-9.21853e-06
-9.11455e-06
-8.99976e-06
-8.87707e-06
-8.71007e-06
-8.78058e-06
-1.10789e-05
-1.10378e-05
-1.09903e-05
-1.09408e-05
-1.08885e-05
-1.08328e-05
-1.07735e-05
-1.07107e-05
-1.06445e-05
-1.0575e-05
-1.05024e-05
-1.04271e-05
-1.03492e-05
-1.02691e-05
-1.01871e-05
-1.01036e-05
-1.00187e-05
-9.9327e-06
-9.84548e-06
-9.75687e-06
-9.66643e-06
-9.57339e-06
-9.47673e-06
-9.37493e-06
-9.26615e-06
-9.14864e-06
-9.01823e-06
-8.87725e-06
-8.6917e-06
-8.71688e-06
-1.12465e-05
-1.12023e-05
-1.11513e-05
-1.10985e-05
-1.1043e-05
-1.0984e-05
-1.09214e-05
-1.08553e-05
-1.07858e-05
-1.0713e-05
-1.06371e-05
-1.05583e-05
-1.04769e-05
-1.03932e-05
-1.03075e-05
-1.02199e-05
-1.01306e-05
-1.00397e-05
-9.94694e-06
-9.85205e-06
-9.75438e-06
-9.65305e-06
-9.54675e-06
-9.43383e-06
-9.31232e-06
-9.18024e-06
-9.03358e-06
-8.87409e-06
-8.67081e-06
-8.65363e-06
-1.1419e-05
-1.13716e-05
-1.13171e-05
-1.12608e-05
-1.1202e-05
-1.11397e-05
-1.10737e-05
-1.10042e-05
-1.09314e-05
-1.08552e-05
-1.07759e-05
-1.06937e-05
-1.06087e-05
-1.05213e-05
-1.04316e-05
-1.03398e-05
-1.02458e-05
-1.01496e-05
-1.00509e-05
-9.94915e-06
-9.84362e-06
-9.73318e-06
-9.61638e-06
-9.49141e-06
-9.35631e-06
-9.20889e-06
-9.04546e-06
-8.86746e-06
-8.64726e-06
-8.59069e-06
-1.1596e-05
-1.15452e-05
-1.14871e-05
-1.14273e-05
-1.1365e-05
-1.12993e-05
-1.12299e-05
-1.11571e-05
-1.10808e-05
-1.10013e-05
-1.09185e-05
-1.08328e-05
-1.07442e-05
-1.0653e-05
-1.05591e-05
-1.04628e-05
-1.03638e-05
-1.02619e-05
-1.01567e-05
-1.00475e-05
-9.93333e-06
-9.81294e-06
-9.68473e-06
-9.54692e-06
-9.39733e-06
-9.23395e-06
-9.05343e-06
-8.85704e-06
-8.62062e-06
-8.52751e-06
-1.17768e-05
-1.17225e-05
-1.16607e-05
-1.15973e-05
-1.15315e-05
-1.14624e-05
-1.13896e-05
-1.13134e-05
-1.12337e-05
-1.11507e-05
-1.10645e-05
-1.09752e-05
-1.08829e-05
-1.07876e-05
-1.06894e-05
-1.05882e-05
-1.04838e-05
-1.03758e-05
-1.02635e-05
-1.01462e-05
-1.00226e-05
-9.89148e-06
-9.75102e-06
-9.59945e-06
-9.43466e-06
-9.25482e-06
-9.05698e-06
-8.84241e-06
-8.59035e-06
-8.46326e-06
-1.19607e-05
-1.19029e-05
-1.18372e-05
-1.17703e-05
-1.1701e-05
-1.16284e-05
-1.15522e-05
-1.14725e-05
-1.13895e-05
-1.1303e-05
-1.12133e-05
-1.11203e-05
-1.10241e-05
-1.09247e-05
-1.08219e-05
-1.07155e-05
-1.06053e-05
-1.04905e-05
-1.03706e-05
-1.02444e-05
-1.01106e-05
-9.96783e-06
-9.81434e-06
-9.64819e-06
-9.46756e-06
-9.27083e-06
-9.05558e-06
-8.82311e-06
-8.55593e-06
-8.39705e-06
-1.21468e-05
-1.20855e-05
-1.2016e-05
-1.19454e-05
-1.18727e-05
-1.17966e-05
-1.1717e-05
-1.1634e-05
-1.15475e-05
-1.14576e-05
-1.13642e-05
-1.12675e-05
-1.11672e-05
-1.10634e-05
-1.09557e-05
-1.08438e-05
-1.07272e-05
-1.06052e-05
-1.04769e-05
-1.03411e-05
-1.01963e-05
-1.00411e-05
-9.87364e-06
-9.69224e-06
-9.49525e-06
-9.28136e-06
-9.04869e-06
-8.79871e-06
-8.517e-06
-8.32839e-06
-1.23344e-05
-1.22695e-05
-1.21962e-05
-1.2122e-05
-1.20458e-05
-1.19663e-05
-1.18833e-05
-1.17969e-05
-1.1707e-05
-1.16136e-05
-1.15166e-05
-1.1416e-05
-1.13116e-05
-1.1203e-05
-1.10901e-05
-1.09723e-05
-1.08488e-05
-1.0719e-05
-1.05816e-05
-1.04353e-05
-1.02787e-05
-1.01101e-05
-9.92803e-06
-9.73076e-06
-9.51697e-06
-9.28573e-06
-9.03577e-06
-8.76879e-06
-8.47324e-06
-8.2574e-06
-1.25223e-05
-1.24539e-05
-1.23768e-05
-1.22991e-05
-1.22194e-05
-1.21366e-05
-1.20503e-05
-1.19605e-05
-1.18672e-05
-1.17703e-05
-1.16696e-05
-1.1565e-05
-1.14562e-05
-1.13427e-05
-1.12242e-05
-1.10999e-05
-1.09691e-05
-1.08307e-05
-1.06834e-05
-1.05259e-05
-1.03567e-05
-1.0174e-05
-9.97656e-06
-9.76288e-06
-9.53196e-06
-9.2833e-06
-9.01627e-06
-8.73282e-06
-8.424e-06
-8.18369e-06
-1.27097e-05
-1.26377e-05
-1.25569e-05
-1.24757e-05
-1.23927e-05
-1.23066e-05
-1.2217e-05
-1.2124e-05
-1.20273e-05
-1.19268e-05
-1.18224e-05
-1.17136e-05
-1.16001e-05
-1.14815e-05
-1.13569e-05
-1.12258e-05
-1.10869e-05
-1.09393e-05
-1.07814e-05
-1.06119e-05
-1.04291e-05
-1.02317e-05
-1.00183e-05
-9.78774e-06
-9.53948e-06
-9.27345e-06
-8.98963e-06
-8.69028e-06
-8.36872e-06
-8.10631e-06
-1.28952e-05
-1.28199e-05
-1.27354e-05
-1.26508e-05
-1.25645e-05
-1.24753e-05
-1.23825e-05
-1.22862e-05
-1.21862e-05
-1.20822e-05
-1.19738e-05
-1.18608e-05
-1.17424e-05
-1.16182e-05
-1.14872e-05
-1.13486e-05
-1.12012e-05
-1.10435e-05
-1.08743e-05
-1.0692e-05
-1.0495e-05
-1.02821e-05
-1.00522e-05
-9.8045e-06
-9.53881e-06
-9.25557e-06
-8.95535e-06
-8.64074e-06
-8.30699e-06
-8.02477e-06
-1.30777e-05
-1.2999e-05
-1.29111e-05
-1.28232e-05
-1.27338e-05
-1.26415e-05
-1.25457e-05
-1.24462e-05
-1.23428e-05
-1.22352e-05
-1.21229e-05
-1.20054e-05
-1.18819e-05
-1.17518e-05
-1.16139e-05
-1.14673e-05
-1.13106e-05
-1.11423e-05
-1.09609e-05
-1.07651e-05
-1.05532e-05
-1.03243e-05
-1.00774e-05
-9.81236e-06
-9.52926e-06
-9.22907e-06
-8.91294e-06
-8.58374e-06
-8.23842e-06
-7.9386e-06
-1.32559e-05
-1.31741e-05
-1.30827e-05
-1.29917e-05
-1.28994e-05
-1.28041e-05
-1.27053e-05
-1.26028e-05
-1.24961e-05
-1.23849e-05
-1.22685e-05
-1.21463e-05
-1.20174e-05
-1.1881e-05
-1.17358e-05
-1.15805e-05
-1.14139e-05
-1.12342e-05
-1.104e-05
-1.08299e-05
-1.06026e-05
-1.03571e-05
-1.00931e-05
-9.81055e-06
-9.5102e-06
-9.19345e-06
-8.86195e-06
-8.51887e-06
-8.16255e-06
-7.84687e-06
-1.34284e-05
-1.33435e-05
-1.3249e-05
-1.3155e-05
-1.30599e-05
-1.29619e-05
-1.28602e-05
-1.27546e-05
-1.26447e-05
-1.25298e-05
-1.24092e-05
-1.22822e-05
-1.21476e-05
-1.20045e-05
-1.18514e-05
-1.1687e-05
-1.15097e-05
-1.1318e-05
-1.11103e-05
-1.08853e-05
-1.0642e-05
-1.03797e-05
-1.00983e-05
-9.79834e-06
-9.48101e-06
-9.14819e-06
-8.802e-06
-8.44581e-06
-8.07918e-06
-7.74935e-06
-1.35938e-05
-1.3506e-05
-1.34085e-05
-1.33118e-05
-1.32141e-05
-1.31134e-05
-1.3009e-05
-1.29005e-05
-1.27873e-05
-1.26687e-05
-1.25439e-05
-1.24117e-05
-1.22712e-05
-1.21209e-05
-1.19595e-05
-1.17853e-05
-1.15968e-05
-1.13923e-05
-1.11705e-05
-1.09302e-05
-1.06704e-05
-1.0391e-05
-1.00922e-05
-9.77503e-06
-9.44115e-06
-9.09286e-06
-8.73271e-06
-8.36431e-06
-7.98833e-06
-7.6464e-06
-1.37505e-05
-1.36601e-05
-1.35598e-05
-1.34606e-05
-1.33604e-05
-1.32573e-05
-1.31503e-05
-1.3039e-05
-1.29226e-05
-1.28003e-05
-1.26709e-05
-1.25335e-05
-1.23866e-05
-1.22288e-05
-1.20585e-05
-1.1874e-05
-1.16737e-05
-1.14559e-05
-1.12195e-05
-1.09632e-05
-1.06868e-05
-1.03901e-05
-1.00741e-05
-9.74e-06
-9.39008e-06
-9.02703e-06
-8.65378e-06
-8.27423e-06
-7.8898e-06
-7.53621e-06
-1.3897e-05
-1.38042e-05
-1.37014e-05
-1.35998e-05
-1.34975e-05
-1.33921e-05
-1.32827e-05
-1.31687e-05
-1.30491e-05
-1.29229e-05
-1.2789e-05
-1.2646e-05
-1.24925e-05
-1.23267e-05
-1.2147e-05
-1.19516e-05
-1.17389e-05
-1.15074e-05
-1.12558e-05
-1.09834e-05
-1.06901e-05
-1.03763e-05
-1.00431e-05
-9.69264e-06
-9.32733e-06
-8.95032e-06
-8.56493e-06
-8.17542e-06
-7.78301e-06
-7.41669e-06
-1.40317e-05
-1.39367e-05
-1.38317e-05
-1.37281e-05
-1.36238e-05
-1.35163e-05
-1.34047e-05
-1.3288e-05
-1.31652e-05
-1.30352e-05
-1.28966e-05
-1.27478e-05
-1.25872e-05
-1.24131e-05
-1.22236e-05
-1.20168e-05
-1.17913e-05
-1.15455e-05
-1.12784e-05
-1.09897e-05
-1.06794e-05
-1.03486e-05
-9.99877e-06
-9.6324e-06
-9.25244e-06
-8.86236e-06
-8.46588e-06
-8.0674e-06
-7.66604e-06
-7.28943e-06
-1.4153e-05
-1.4056e-05
-1.3949e-05
-1.38437e-05
-1.37377e-05
-1.36284e-05
-1.35146e-05
-1.33954e-05
-1.32695e-05
-1.31356e-05
-1.2992e-05
-1.28372e-05
-1.26693e-05
-1.24864e-05
-1.22866e-05
-1.20681e-05
-1.18293e-05
-1.15688e-05
-1.12861e-05
-1.09809e-05
-1.06539e-05
-1.03063e-05
-9.94031e-06
-9.55876e-06
-9.16501e-06
-8.76285e-06
-8.35641e-06
-7.94955e-06
-7.53945e-06
-7.15559e-06
-1.42591e-05
-1.41605e-05
-1.40519e-05
-1.39451e-05
-1.38376e-05
-1.37267e-05
-1.3611e-05
-1.34893e-05
-1.33603e-05
-1.32224e-05
-1.30738e-05
-1.29128e-05
-1.27372e-05
-1.25452e-05
-1.23348e-05
-1.2104e-05
-1.18516e-05
-1.15763e-05
-1.12778e-05
-1.09562e-05
-1.06126e-05
-1.02487e-05
-9.8672e-06
-9.47129e-06
-9.06468e-06
-8.65154e-06
-8.23622e-06
-7.82071e-06
-7.40444e-06
-7.01431e-06
-1.43484e-05
-1.42485e-05
-1.41386e-05
-1.40306e-05
-1.3922e-05
-1.38097e-05
-1.36922e-05
-1.35681e-05
-1.3436e-05
-1.3294e-05
-1.31403e-05
-1.29728e-05
-1.27894e-05
-1.25879e-05
-1.23665e-05
-1.21232e-05
-1.18569e-05
-1.15667e-05
-1.12524e-05
-1.09146e-05
-1.05548e-05
-1.01752e-05
-9.77893e-06
-9.36955e-06
-8.95114e-06
-8.5282e-06
-8.10476e-06
-7.68048e-06
-7.26098e-06
-6.86518e-06
-1.44192e-05
-1.43184e-05
-1.42075e-05
-1.40987e-05
-1.39891e-05
-1.38756e-05
-1.37565e-05
-1.36302e-05
-1.3495e-05
-1.3349e-05
-1.319e-05
-1.30158e-05
-1.28242e-05
-1.2613e-05
-1.23803e-05
-1.21244e-05
-1.18441e-05
-1.15389e-05
-1.12089e-05
-1.08552e-05
-1.04798e-05
-1.00852e-05
-9.67504e-06
-9.2532e-06
-8.82413e-06
-8.39251e-06
-7.96093e-06
-7.5301e-06
-7.10872e-06
-6.70749e-06
-1.44699e-05
-1.43684e-05
-1.42569e-05
-1.41476e-05
-1.40374e-05
-1.3923e-05
-1.38024e-05
-1.3674e-05
-1.35358e-05
-1.33856e-05
-1.32212e-05
-1.30402e-05
-1.28402e-05
-1.26191e-05
-1.2375e-05
-1.21062e-05
-1.18119e-05
-1.14918e-05
-1.11465e-05
-1.07774e-05
-1.0387e-05
-9.97824e-06
-9.55512e-06
-9.12194e-06
-8.68342e-06
-8.24403e-06
-7.80438e-06
-7.36991e-06
-6.94715e-06
-6.54103e-06
-1.44988e-05
-1.4397e-05
-1.42853e-05
-1.41758e-05
-1.40652e-05
-1.39501e-05
-1.38283e-05
-1.36979e-05
-1.35567e-05
-1.34023e-05
-1.32324e-05
-1.30444e-05
-1.2836e-05
-1.26048e-05
-1.23491e-05
-1.20675e-05
-1.17593e-05
-1.14246e-05
-1.10644e-05
-1.06805e-05
-1.02758e-05
-9.85383e-06
-9.41886e-06
-8.97551e-06
-8.52873e-06
-8.08194e-06
-7.6361e-06
-7.19961e-06
-6.77583e-06
-6.36555e-06
-7.71772e-06
-7.59266e-06
-7.43977e-06
-7.25248e-06
-7.02843e-06
-6.76332e-06
-6.45508e-06
-6.10239e-06
-5.70534e-06
-5.26566e-06
-4.78689e-06
-4.27462e-06
-3.73647e-06
-3.18206e-06
-2.61975e-06
-2.06523e-06
-1.52864e-06
-1.02211e-06
-5.55737e-07
-1.38259e-07
2.23054e-07
5.24076e-07
7.63181e-07
9.41411e-07
1.0622e-06
1.131e-06
1.15478e-06
1.14148e-06
1.09938e-06
1.03659e-06
9.60524e-07
8.77499e-07
7.92559e-07
7.0939e-07
6.30457e-07
5.57198e-07
4.90292e-07
4.29887e-07
3.75793e-07
3.27628e-07
2.84905e-07
2.47112e-07
2.13737e-07
1.84327e-07
1.58428e-07
1.35699e-07
1.15735e-07
9.83077e-08
8.30145e-08
6.97956e-08
5.81454e-08
4.8248e-08
3.93663e-08
3.20804e-08
2.51818e-08
1.99243e-08
1.42386e-08
1.0841e-08
4.98733e-09
5.59169e-09
-7.73231e-06
-7.60567e-06
-7.45408e-06
-7.2668e-06
-7.04305e-06
-6.77842e-06
-6.47063e-06
-6.1183e-06
-5.72151e-06
-5.28194e-06
-4.80314e-06
-4.29067e-06
-3.75215e-06
-3.197e-06
-2.63462e-06
-2.07911e-06
-1.54165e-06
-1.03419e-06
-5.66816e-07
-1.48312e-07
2.14031e-07
5.1609e-07
7.56206e-07
9.35417e-07
1.05712e-06
1.12676e-06
1.15132e-06
1.1387e-06
1.09719e-06
1.03489e-06
9.59225e-07
8.76519e-07
7.91835e-07
7.08851e-07
6.30065e-07
5.56906e-07
4.90083e-07
4.29735e-07
3.7569e-07
3.27535e-07
2.84846e-07
2.47065e-07
2.13704e-07
1.84308e-07
1.58405e-07
1.35679e-07
1.15733e-07
9.82791e-08
8.30199e-08
6.97896e-08
5.8118e-08
4.82569e-08
3.93545e-08
3.20495e-08
2.51689e-08
1.99559e-08
1.42411e-08
1.08196e-08
4.96504e-09
5.58177e-09
-7.76109e-06
-7.63124e-06
-7.48163e-06
-7.29507e-06
-7.07207e-06
-6.80829e-06
-6.50134e-06
-6.14971e-06
-5.75341e-06
-5.31409e-06
-4.83525e-06
-4.32242e-06
-3.78322e-06
-3.22698e-06
-2.66372e-06
-2.10662e-06
-1.56748e-06
-1.05818e-06
-5.88865e-07
-1.68342e-07
1.96057e-07
5.00168e-07
7.42294e-07
9.23439e-07
1.04697e-06
1.11831e-06
1.14441e-06
1.13315e-06
1.09281e-06
1.03149e-06
9.56631e-07
8.74567e-07
7.90383e-07
7.0778e-07
6.2928e-07
5.56333e-07
4.89665e-07
4.29427e-07
3.75463e-07
3.27367e-07
2.84719e-07
2.46967e-07
2.13628e-07
1.84248e-07
1.58358e-07
1.35642e-07
1.15701e-07
9.82559e-08
8.29968e-08
6.97725e-08
5.8105e-08
4.82431e-08
3.93453e-08
3.20436e-08
2.51626e-08
1.99465e-08
1.42368e-08
1.08173e-08
4.96744e-09
5.57705e-09
-7.803e-06
-7.66833e-06
-7.52133e-06
-7.3362e-06
-7.1146e-06
-6.85209e-06
-6.54637e-06
-6.19578e-06
-5.80024e-06
-5.36131e-06
-4.88245e-06
-4.36916e-06
-3.82905e-06
-3.27135e-06
-2.70654e-06
-2.14729e-06
-1.60571e-06
-1.09375e-06
-6.2157e-07
-1.98084e-07
1.6934e-07
4.76479e-07
7.21578e-07
9.05589e-07
1.03184e-06
1.10569e-06
1.13408e-06
1.12484e-06
1.08625e-06
1.02641e-06
9.52747e-07
8.71643e-07
7.88205e-07
7.06173e-07
6.28103e-07
5.55475e-07
4.89038e-07
4.28966e-07
3.75123e-07
3.27115e-07
2.84528e-07
2.46821e-07
2.13515e-07
1.84159e-07
1.58288e-07
1.35586e-07
1.15655e-07
9.82199e-08
8.29634e-08
6.97466e-08
5.80844e-08
4.82231e-08
3.93308e-08
3.20329e-08
2.51528e-08
1.99345e-08
1.42308e-08
1.08125e-08
4.96961e-09
5.56937e-09
-7.85643e-06
-7.71544e-06
-7.57183e-06
-7.38871e-06
-7.16922e-06
-6.90852e-06
-6.60449e-06
-6.25533e-06
-5.86087e-06
-5.42255e-06
-4.94377e-06
-4.42998e-06
-3.88876e-06
-3.3293e-06
-2.76243e-06
-2.20048e-06
-1.65581e-06
-1.14039e-06
-6.64528e-07
-2.372e-07
1.34164e-07
4.45254e-07
6.94243e-07
8.8201e-07
1.01182e-06
1.08899e-06
1.12039e-06
1.11382e-06
1.07755e-06
1.01965e-06
9.47584e-07
8.67753e-07
7.85308e-07
7.04035e-07
6.26536e-07
5.54331e-07
4.88203e-07
4.28352e-07
3.7467e-07
3.26778e-07
2.84274e-07
2.46626e-07
2.13364e-07
1.8404e-07
1.58195e-07
1.35511e-07
1.15594e-07
9.81713e-08
8.29197e-08
6.97118e-08
5.80563e-08
4.81969e-08
3.93109e-08
3.20174e-08
2.51395e-08
1.99196e-08
1.4223e-08
1.08053e-08
4.97156e-09
5.55874e-09
-7.91956e-06
-7.77068e-06
-7.63168e-06
-7.45088e-06
-7.23418e-06
-6.97591e-06
-6.67413e-06
-6.32688e-06
-5.93388e-06
-5.49647e-06
-5.01797e-06
-4.50373e-06
-3.96126e-06
-3.39992e-06
-2.83055e-06
-2.26546e-06
-1.7171e-06
-1.19756e-06
-7.17248e-07
-2.85278e-07
9.08728e-08
4.06777e-07
6.60518e-07
8.52885e-07
9.87067e-07
1.06831e-06
1.10341e-06
1.10015e-06
1.06673e-06
1.01125e-06
9.41157e-07
8.62906e-07
7.81696e-07
7.01369e-07
6.24582e-07
5.52903e-07
4.87159e-07
4.27587e-07
3.74105e-07
3.26358e-07
2.83957e-07
2.46383e-07
2.13177e-07
1.83893e-07
1.58079e-07
1.35418e-07
1.15518e-07
9.81101e-08
8.28656e-08
6.96683e-08
5.80206e-08
4.81643e-08
3.92857e-08
3.19971e-08
2.51228e-08
1.99019e-08
1.42134e-08
1.07956e-08
4.97332e-09
5.54516e-09
-7.99064e-06
-7.83181e-06
-7.69883e-06
-7.52075e-06
-7.30753e-06
-7.05235e-06
-6.75342e-06
-6.40864e-06
-6.0176e-06
-5.5815e-06
-5.10357e-06
-4.58903e-06
-4.04536e-06
-3.48205e-06
-2.90993e-06
-2.34133e-06
-1.78883e-06
-1.26458e-06
-7.79165e-07
-3.41837e-07
3.98691e-08
3.61381e-07
6.20672e-07
8.18425e-07
9.57739e-07
1.04377e-06
1.08325e-06
1.08388e-06
1.05385e-06
1.00122e-06
9.33483e-07
8.57114e-07
7.77376e-07
6.98179e-07
6.22242e-07
5.51192e-07
4.85909e-07
4.26669e-07
3.73428e-07
3.25854e-07
2.83577e-07
2.46092e-07
2.12953e-07
1.83717e-07
1.57939e-07
1.35306e-07
1.15406e-07
9.80363e-08
8.28014e-08
6.96159e-08
5.79775e-08
4.81255e-08
3.92551e-08
3.19719e-08
2.51026e-08
1.98814e-08
1.42021e-08
1.07835e-08
4.97488e-09
5.52865e-09
-8.06811e-06
-7.89629e-06
-7.77123e-06
-7.59619e-06
-7.38715e-06
-7.13574e-06
-6.84034e-06
-6.49867e-06
-6.11016e-06
-5.67588e-06
-5.19893e-06
-4.68431e-06
-4.13974e-06
-3.57444e-06
-2.99946e-06
-2.42713e-06
-1.87014e-06
-1.34071e-06
-8.49645e-07
-4.0634e-07
-1.83984e-08
3.09435e-07
5.75006e-07
7.78872e-07
9.24023e-07
1.01552e-06
1.05999e-06
1.06509e-06
1.03895e-06
9.89609e-07
9.24583e-07
8.50389e-07
7.72357e-07
6.9447e-07
6.19519e-07
5.492e-07
4.84452e-07
4.256e-07
3.72638e-07
3.25266e-07
2.83134e-07
2.45753e-07
2.12691e-07
1.83512e-07
1.57777e-07
1.35176e-07
1.153e-07
9.79501e-08
8.27269e-08
6.95548e-08
5.79268e-08
4.80805e-08
3.92193e-08
3.19421e-08
2.50789e-08
1.9858e-08
1.41889e-08
1.0769e-08
4.97628e-09
5.5092e-09
-8.15203e-06
-7.96062e-06
-7.84707e-06
-7.6751e-06
-7.47083e-06
-7.22394e-06