/*--------------------------------*- C++ -*----------------------------------*\
| =========                 |                                                 |
| \\      /  F ield         | foam-extend: Open Source CFD                    |
|  \\    /   O peration     | Version:     4.0                                |
|   \\  /    A nd           | Web:         http://www.foam-extend.org         |
|    \\/     M anipulation  |                                                 |
\*---------------------------------------------------------------------------*/
FoamFile
{
    version     2.0;
    format      ascii;
    class       surfaceScalarField;
    location    "65";
    object      phi;
}
// * * * * * * * * * * * * * * * * * * * * * * * * * * * * * * * * * * * * * //

dimensions      [0 3 -1 0 0 0 0];

internalField   nonuniform List<scalar> 
71520
(
-1.93531e-10
1.92338e-10
1.19334e-12
-7.80117e-10
5.82898e-10
3.68809e-12
-1.78959e-09
1.00302e-09
6.44949e-12
-3.25219e-09
1.45311e-09
9.49374e-12
-5.19844e-09
1.93341e-09
1.28368e-11
-7.6589e-09
2.44397e-09
1.64933e-11
-1.06641e-08
2.98471e-09
2.04764e-11
-1.42443e-08
3.55539e-09
2.47977e-11
-1.84293e-08
4.15558e-09
2.94664e-11
-2.32484e-08
4.78464e-09
3.44902e-11
-2.87301e-08
5.44174e-09
3.98741e-11
-3.49014e-08
6.12574e-09
4.56205e-11
-4.17884e-08
6.83525e-09
5.17285e-11
-4.9415e-08
7.56846e-09
5.81949e-11
-5.78032e-08
8.32311e-09
6.50125e-11
-6.69717e-08
9.09636e-09
7.21702e-11
-7.69361e-08
9.8847e-09
7.96537e-11
-8.77072e-08
1.06837e-08
8.74443e-11
-9.92902e-08
1.14876e-08
9.55176e-11
-1.11683e-07
1.22892e-08
1.03842e-10
-1.24875e-07
1.30792e-08
1.12378e-10
-1.38841e-07
1.38456e-08
1.21072e-10
-1.53544e-07
1.4573e-08
1.29854e-10
-1.68925e-07
1.52417e-08
1.38631e-10
-1.84898e-07
1.58265e-08
1.47278e-10
-2.0135e-07
1.62958e-08
1.55629e-10
-2.18123e-07
1.661e-08
1.63467e-10
-2.35012e-07
1.67185e-08
1.70513e-10
-2.51741e-07
1.65526e-08
1.764e-10
1.60279e-08
-2.6795e-07
1.80659e-10
-1.90783e-10
3.83121e-10
-7.69171e-10
1.16129e-09
-1.7647e-09
1.99855e-09
-3.20731e-09
2.89573e-09
-5.12719e-09
3.85328e-09
-7.55455e-09
4.87133e-09
-1.05195e-08
5.94968e-09
-1.40519e-08
7.08782e-09
-1.81812e-08
8.28483e-09
-2.2936e-08
9.53941e-09
-2.8344e-08
1.08498e-08
-3.44318e-08
1.22136e-08
-4.12244e-08
1.36278e-08
-4.87448e-08
1.50889e-08
-5.70137e-08
1.6592e-08
-6.60486e-08
1.81313e-08
-7.58633e-08
1.96994e-08
-8.64669e-08
2.12873e-08
-9.78625e-08
2.28831e-08
-1.10045e-07
2.44721e-08
-1.23001e-07
2.60351e-08
-1.36704e-07
2.75479e-08
-1.51109e-07
2.89788e-08
-1.66156e-07
3.0288e-08
-1.81754e-07
3.14244e-08
-1.97782e-07
3.23242e-08
-2.14079e-07
3.29074e-08
-2.30433e-07
3.30722e-08
-2.46562e-07
3.26816e-08
3.15644e-08
-2.62099e-07
-1.85359e-10
5.68481e-10
-7.47549e-10
1.72348e-09
-1.71552e-09
2.96652e-09
-3.11859e-09
4.2988e-09
-4.98629e-09
5.72098e-09
-7.34814e-09
7.23318e-09
-1.02335e-08
8.83503e-09
-1.36713e-08
1.05257e-08
-1.76901e-08
1.23036e-08
-2.23173e-08
1.41666e-08
-2.75794e-08
1.61119e-08
-3.35016e-08
1.81357e-08
-4.0107e-08
2.02333e-08
-4.74168e-08
2.23986e-08
-5.54491e-08
2.46243e-08
-6.42189e-08
2.69011e-08
-7.37368e-08
2.92173e-08
-8.40082e-08
3.15587e-08
-9.50317e-08
3.39067e-08
-1.06798e-07
3.62383e-08
-1.19287e-07
3.8524e-08
-1.32465e-07
4.07259e-08
-1.46282e-07
4.27958e-08
-1.60666e-07
4.46723e-08
-1.75519e-07
4.62777e-08
-1.9071e-07
4.75148e-08
-2.06065e-07
4.82624e-08
-2.2136e-07
4.83672e-08
-2.36303e-07
4.76243e-08
4.57708e-08
-2.50509e-07
-1.77407e-10
7.45888e-10
-7.15836e-10
2.26191e-09
-1.64334e-09
3.89403e-09
-2.98834e-09
5.64379e-09
-4.77935e-09
7.51199e-09
-7.04485e-09
9.49867e-09
-9.81303e-09
1.16032e-08
-1.31116e-08
1.38242e-08
-1.69675e-08
1.61595e-08
-2.14067e-08
1.86058e-08
-2.64538e-08
2.1159e-08
-3.21316e-08
2.38135e-08
-3.84608e-08
2.65625e-08
-4.54595e-08
2.93974e-08
-5.31426e-08
3.23074e-08
-6.15209e-08
3.52793e-08
-7.06004e-08
3.82968e-08
-8.0381e-08
4.13393e-08
-9.08553e-08
4.4381e-08
-1.02006e-07
4.73893e-08
-1.13805e-07
5.03232e-08
-1.2621e-07
5.31304e-08
-1.39158e-07
5.57441e-08
-1.52566e-07
5.80805e-08
-1.66322e-07
6.00337e-08
-1.80279e-07
6.14716e-08
-1.94247e-07
6.22307e-08
-2.07986e-07
6.21054e-08
-2.21187e-07
6.08254e-08
5.80224e-08
-2.33438e-07
-1.67145e-10
9.13034e-10
-6.74877e-10
2.76964e-09
-1.55008e-09
4.76923e-09
-2.81991e-09
6.91363e-09
-4.5116e-09
9.20368e-09
-6.65221e-09
1.16393e-08
-9.2684e-09
1.42194e-08
-1.23862e-08
1.6942e-08
-1.60306e-08
1.98039e-08
-2.02253e-08
2.28006e-08
-2.49925e-08
2.59262e-08
-3.03522e-08
2.91731e-08
-3.63216e-08
3.25319e-08
-4.2915e-08
3.59908e-08
-5.01428e-08
3.95352e-08
-5.80106e-08
4.31472e-08
-6.65184e-08
4.68046e-08
-7.5659e-08
5.04799e-08
-8.54168e-08
5.41388e-08
-9.57655e-08
5.77381e-08
-1.06666e-07
6.12236e-08
-1.18062e-07
6.45268e-08
-1.2988e-07
6.75614e-08
-1.42018e-07
7.02186e-08
-1.54347e-07
7.23629e-08
-1.66701e-07
7.38253e-08
-1.78868e-07
7.43983e-08
-1.90587e-07
7.3824e-08
-2.01534e-07
7.17727e-08
6.77447e-08
-2.11257e-07
-1.54846e-10
1.06788e-09
-6.25746e-10
3.24054e-09
-1.43812e-09
5.5816e-09
-2.61758e-09
8.09309e-09
-4.18972e-09
1.07758e-08
-6.17984e-09
1.36294e-08
-8.61269e-09
1.66523e-08
-1.15121e-08
1.98414e-08
-1.49008e-08
2.31926e-08
-1.87999e-08
2.66996e-08
-2.32282e-08
3.03545e-08
-2.82022e-08
3.41472e-08
-3.37353e-08
3.80651e-08
-3.9837e-08
4.20925e-08
-4.65121e-08
4.62103e-08
-5.376e-08
5.0395e-08
-6.15732e-08
5.46178e-08
-6.99364e-08
5.8843e-08
-7.88239e-08
6.30263e-08
-8.81983e-08
6.71125e-08
-9.80075e-08
7.10327e-08
-1.08181e-07
7.47003e-08
-1.18627e-07
7.80072e-08
-1.29226e-07
8.08182e-08
-1.39829e-07
8.29653e-08
-1.50244e-07
8.42409e-08
-1.60237e-07
8.43912e-08
-1.69517e-07
8.3104e-08
-1.77753e-07
8.00084e-08
7.44243e-08
-1.84433e-07
-1.40833e-10
1.20871e-09
-5.697e-10
3.66941e-09
-1.31027e-09
6.32217e-09
-2.38634e-09
9.16915e-09
-3.82152e-09
1.2211e-08
-5.63902e-09
1.54469e-08
-7.86128e-09
1.88745e-08
-1.05097e-08
2.24898e-08
-1.3604e-08
2.62869e-08
-1.7162e-08
3.02577e-08
-2.11993e-08
3.43917e-08
-2.5728e-08
3.86759e-08
-3.07567e-08
4.30937e-08
-3.62893e-08
4.76251e-08
-4.23246e-08
5.22455e-08
-4.88544e-08
5.69249e-08
-5.58631e-08
6.16265e-08
-6.33253e-08
6.63052e-08
-7.12045e-08
7.09055e-08
-7.94503e-08
7.53583e-08
-8.79959e-08
7.95782e-08
-9.67542e-08
8.34587e-08
-1.05615e-07
8.68676e-08
-1.14437e-07
8.96408e-08
-1.23048e-07
9.1576e-08
-1.31231e-07
9.24236e-08
-1.38723e-07
9.18831e-08
-1.45203e-07
8.95842e-08
-1.50323e-07
8.51286e-08
7.76092e-08
-1.53508e-07
-1.25461e-10
1.33418e-09
-5.08136e-10
4.05208e-09
-1.16968e-09
6.98372e-09
-2.13176e-09
1.01312e-08
-3.41572e-09
1.3495e-08
-5.04234e-09
1.70735e-08
-7.03138e-09
2.08636e-08
-9.40126e-09
2.48597e-08
-1.21686e-08
2.90542e-08
-1.53474e-08
3.34366e-08
-1.89491e-08
3.79935e-08
-2.29812e-08
4.2708e-08
-2.74469e-08
4.75594e-08
-3.23439e-08
5.25221e-08
-3.76637e-08
5.75654e-08
-4.33903e-08
6.26515e-08
-4.94985e-08
6.77347e-08
-5.59523e-08
7.2759e-08
-6.27028e-08
7.76559e-08
-6.96856e-08
8.23411e-08
-7.68177e-08
8.67104e-08
-8.39943e-08
9.06353e-08
-9.10843e-08
9.39576e-08
-9.79251e-08
9.64816e-08
-1.04318e-07
9.79683e-08
-1.10018e-07
9.81241e-08
-1.14735e-07
9.65998e-08
-1.18116e-07
9.29658e-08
-1.19784e-07
8.67967e-08
7.69101e-08
-1.19085e-07
-1.0911e-10
1.44329e-09
-4.4254e-10
4.38551e-09
-1.01968e-09
7.56086e-09
-1.85979e-09
1.09713e-08
-2.98165e-09
1.46168e-08
-4.40325e-09
1.84951e-08
-6.14137e-09
2.26017e-08
-8.21112e-09
2.69294e-08
-1.06254e-08
3.14684e-08
-1.33942e-08
3.62054e-08
-1.65242e-08
4.11235e-08
-2.00178e-08
4.62015e-08
-2.3872e-08
5.14136e-08
-2.8078e-08
5.67282e-08
-3.26196e-08
6.2107e-08
-3.74717e-08
6.75036e-08
-4.25991e-08
7.28621e-08
-4.79541e-08
7.8114e-08
-5.34747e-08
8.31765e-08
-5.90813e-08
8.79478e-08
-6.46744e-08
9.23035e-08
-7.01299e-08
9.60908e-08
-7.52958e-08
9.91235e-08
-7.9986e-08
1.01172e-07
-8.39754e-08
1.01958e-07
-8.69928e-08
1.01142e-07
-8.87131e-08
9.832e-08
-8.87527e-08
9.30054e-08
-8.67169e-08
8.47609e-08
7.20021e-08
-8.18088e-08
-9.21667e-11
1.53545e-09
-3.74431e-10
4.66778e-09
-8.63682e-10
8.05011e-09
-1.5765e-09
1.16841e-08
-2.52884e-09
1.55692e-08
-3.73559e-09
1.97019e-08
-5.2102e-09
2.40763e-08
-6.9641e-09
2.86833e-08
-9.00611e-09
3.35104e-08
-1.13418e-08
3.85411e-08
-1.39727e-08
4.37543e-08
-1.68954e-08
4.91242e-08
-2.01007e-08
5.46189e-08
-2.35724e-08
6.01999e-08
-2.72859e-08
6.58205e-08
-3.12069e-08
7.14246e-08
-3.52892e-08
7.69444e-08
-3.9473e-08
8.22978e-08
-4.36823e-08
8.73857e-08
-4.78221e-08
9.20876e-08
-5.17754e-08
9.62568e-08
-5.5399e-08
9.97144e-08
-5.85191e-08
1.02244e-07
-6.0927e-08
1.0358e-07
-6.23713e-08
1.03402e-07
-6.25517e-08
1.01322e-07
-6.11079e-08
9.68763e-08
-5.76115e-08
8.9509e-08
-5.16973e-08
7.88467e-08
6.27094e-08
-4.24046e-08
-7.50103e-11
1.61047e-09
-3.05304e-10
4.89807e-09
-7.05049e-10
8.44986e-09
-1.28793e-09
1.2267e-08
-2.06675e-09
1.6348e-08
-3.05308e-09
2.06882e-08
-4.25667e-09
2.52799e-08
-5.68497e-09
3.01116e-08
-7.34239e-09
3.51679e-08
-9.22958e-09
4.04283e-08
-1.13426e-08
4.58674e-08
-1.3672e-08
5.14536e-08
-1.62017e-08
5.71486e-08
-1.89078e-08
6.2906e-08
-2.1757e-08
6.86697e-08
-2.47049e-08
7.43725e-08
-2.76942e-08
7.99337e-08
-3.06523e-08
8.52559e-08
-3.34889e-08
9.02224e-08
-3.60936e-08
9.46923e-08
-3.83315e-08
9.84947e-08
-4.00406e-08
1.01424e-07
-4.1026e-08
1.03229e-07
-4.10545e-08
1.03608e-07
-3.98492e-08
1.02197e-07
-3.70832e-08
9.8556e-08
-3.23726e-08
9.21657e-08
-2.5229e-08
8.23653e-08
-1.50594e-08
6.86771e-08
4.99236e-08
-2.27356e-09
-5.79986e-11
1.66846e-09
-2.3657e-10
5.07664e-09
-5.46973e-10
8.76026e-09
-9.99764e-10
1.27198e-08
-1.60441e-09
1.69526e-08
-2.36881e-09
2.14526e-08
-3.29881e-09
2.62099e-08
-4.39752e-09
3.12103e-08
-5.66463e-09
3.6435e-08
-7.09556e-09
4.18592e-08
-8.68058e-09
4.74524e-08
-1.04038e-08
5.31768e-08
-1.2242e-08
5.89868e-08
-1.4163e-08
6.48271e-08
-1.61245e-08
7.06312e-08
-1.80718e-08
7.63198e-08
-1.99358e-08
8.17977e-08
-2.16311e-08
8.69512e-08
-2.30535e-08
9.16447e-08
-2.40765e-08
9.57153e-08
-2.45483e-08
9.89665e-08
-2.42872e-08
1.01162e-07
-2.30768e-08
1.02019e-07
-2.06607e-08
1.01192e-07
-1.67375e-08
9.82735e-08
-1.09515e-08
9.277e-08
-2.89157e-09
8.41058e-08
7.85172e-09
7.1622e-08
2.21898e-08
5.43391e-08
3.19277e-08
4.01857e-08
-4.14504e-11
1.70991e-09
-1.69499e-10
5.20469e-09
-3.92335e-10
8.9831e-09
-7.17214e-10
1.30447e-08
-1.15003e-09
1.73854e-08
-1.69483e-09
2.19974e-08
-2.35322e-09
2.68683e-08
-3.12373e-09
3.19809e-08
-4.00105e-09
3.73123e-08
-4.97506e-09
4.28332e-08
-6.02996e-09
4.85073e-08
-7.14319e-09
5.42901e-08
-8.28397e-09
6.01276e-08
-9.4117e-09
6.59548e-08
-1.04744e-08
7.16939e-08
-1.14067e-08
7.72521e-08
-1.21281e-08
8.25191e-08
-1.25404e-08
8.73636e-08
-1.25254e-08
9.16297e-08
-1.19407e-08
9.51306e-08
-1.0617e-08
9.76429e-08
-8.35361e-09
9.8899e-08
-4.91353e-09
9.85785e-08
-1.88037e-11
9.62975e-08
6.65884e-09
9.15958e-08
1.54964e-08
8.39324e-08
2.69359e-08
7.26663e-08
4.15163e-08
5.70416e-08
5.97371e-08
3.61183e-08
9.21033e-09
8.24544e-08
-2.56326e-11
1.73554e-09
-1.05164e-10
5.28422e-09
-2.43596e-10
9.12153e-09
-4.44738e-10
1.32458e-08
-7.10754e-10
1.76515e-08
-1.04163e-09
2.23283e-08
-1.43452e-09
2.72612e-08
-1.88308e-09
3.24294e-08
-2.37672e-09
3.78059e-08
-2.89958e-09
4.33561e-08
-3.42967e-09
4.90374e-08
-3.93743e-09
5.47978e-08
-4.38395e-09
6.05741e-08
-4.71975e-09
6.62906e-08
-4.8832e-09
7.18573e-08
-4.79856e-09
7.71674e-08
-4.37379e-09
8.20943e-08
-3.49816e-09
8.64879e-08
-2.03882e-09
9.01704e-08
1.61893e-10
9.29298e-08
3.2906e-09
9.45141e-08
7.56663e-09
9.4623e-08
1.32469e-08
9.28982e-08
2.06314e-08
8.8913e-08
3.00675e-08
8.21598e-08
4.19604e-08
7.20395e-08
5.67792e-08
5.78475e-08
7.50649e-08
3.87559e-08
9.73867e-08
1.37965e-08
-1.80013e-08
1.24598e-07
-1.07599e-11
1.7463e-09
-4.44435e-11
5.3179e-09
-1.02763e-10
9.17985e-09
-1.8596e-10
1.3329e-08
-2.92331e-10
1.77578e-08
-4.17671e-10
2.24536e-08
-5.54594e-10
2.73981e-08
-6.91718e-10
3.25665e-08
-8.12762e-10
3.7927e-08
-8.96165e-10
4.34395e-08
-9.13205e-10
4.90544e-08
-8.26327e-10
5.4711e-08
-5.88609e-10
6.03364e-08
-1.42052e-10
6.5844e-08
5.84376e-10
7.11309e-08
1.6768e-09
7.6075e-08
3.23882e-09
8.05323e-08
5.39426e-09
8.43325e-08
8.29017e-09
8.72745e-08
1.20998e-08
8.91203e-08
1.70262e-08
8.95877e-08
2.33067e-08
8.83425e-08
3.12173e-08
8.49876e-08
4.10777e-08
7.90526e-08
5.32572e-08
6.99803e-08
6.81822e-08
5.71145e-08
8.63433e-08
3.96864e-08
1.08302e-07
1.67969e-08
1.34673e-07
-1.25744e-08
-4.96232e-08
1.66295e-07
2.94286e-12
1.74336e-09
1.18075e-11
5.30903e-09
2.82693e-11
9.16339e-09
5.57869e-11
1.33015e-08
1.00087e-10
1.77135e-08
1.6975e-10
2.2384e-08
2.76905e-10
2.72909e-08
4.3802e-10
3.24054e-08
6.74858e-10
3.76901e-08
1.01569e-09
4.30986e-08
1.49649e-09
4.85736e-08
2.16168e-09
5.40458e-08
3.06608e-09
5.9432e-08
4.27662e-09
6.46335e-08
5.87412e-09
6.95334e-08
7.95552e-09
7.39936e-08
1.06364e-08
7.78515e-08
1.40533e-08
8.09155e-08
1.83672e-08
8.29606e-08
2.37664e-08
8.37211e-08
3.04703e-08
8.28839e-08
3.87334e-08
8.00794e-08
4.88499e-08
7.48711e-08
6.11584e-08
6.6744e-08
7.60481e-08
5.50906e-08
9.39648e-08
3.91978e-08
1.15419e-07
1.82326e-08
1.40992e-07
-8.77679e-09
1.71329e-07
-4.29111e-08
-8.55609e-08
2.07267e-07
1.5325e-11
1.72804e-09
6.30163e-11
5.26134e-09
1.48209e-10
9.07819e-09
2.78141e-10
1.31716e-08
4.62667e-10
1.7529e-08
7.1488e-10
2.21317e-08
1.05183e-09
2.6954e-08
1.49539e-09
3.19619e-08
2.07319e-09
3.71123e-08
2.81988e-09
4.2352e-08
3.77813e-09
4.76154e-08
5.00003e-09
5.28239e-08
6.54873e-09
5.78833e-08
8.50011e-09
6.26821e-08
1.09449e-08
6.70886e-08
1.3991e-08
7.09475e-08
1.77657e-08
7.40768e-08
2.24183e-08
7.62629e-08
2.81235e-08
7.72553e-08
3.50846e-08
7.676e-08
4.35366e-08
7.44318e-08
5.3751e-08
6.9865e-08
6.60394e-08
6.25828e-08
8.07584e-08
5.2025e-08
9.83151e-08
3.75339e-08
1.19173e-07
1.83396e-08
1.4386e-07
-6.45414e-09
1.72974e-07
-3.78907e-08
2.07183e-07
-7.71202e-08
-1.2571e-07
2.47332e-07
2.638e-11
1.70166e-09
1.09078e-10
5.17864e-09
2.56731e-10
8.93054e-09
4.80416e-10
1.29479e-08
7.94195e-10
1.72152e-08
1.21576e-09
2.17102e-08
1.76721e-09
2.64025e-08
2.4759e-09
3.12532e-08
3.37547e-09
3.62128e-08
4.50698e-09
4.12204e-08
5.92017e-09
4.62022e-08
7.67484e-09
5.10692e-08
9.84253e-09
5.57156e-08
1.25083e-08
6.00163e-08
1.57731e-08
6.38238e-08
1.97554e-08
6.69652e-08
2.45944e-08
6.92378e-08
3.04523e-08
7.04051e-08
3.75174e-08
7.01902e-08
4.60075e-08
6.82699e-08
5.61736e-08
6.42657e-08
6.83032e-08
5.77354e-08
8.27248e-08
4.81612e-08
9.98121e-08
3.49377e-08
1.19989e-07
1.73571e-08
1.43735e-07
-5.40606e-09
1.71589e-07
-3.43087e-08
2.04165e-07
-7.04661e-08
2.42148e-07
-1.15104e-07
-1.69957e-07
2.86396e-07
3.61192e-11
1.66554e-09
1.50033e-10
5.06473e-09
3.53892e-10
8.72668e-09
6.6265e-10
1.26391e-08
1.09463e-09
1.67833e-08
1.67219e-09
2.11326e-08
2.42254e-09
2.56522e-08
3.37863e-09
3.02971e-08
4.58017e-09
3.50112e-08
6.07485e-09
3.97258e-08
7.91958e-09
4.43575e-08
1.0182e-08
4.88067e-08
1.29423e-08
5.29554e-08
1.62947e-08
5.66638e-08
2.03505e-08
5.97681e-08
2.5239e-08
6.20766e-08
3.11113e-08
6.33655e-08
3.81424e-08
6.3374e-08
4.65343e-08
6.17983e-08
5.65196e-08
5.82846e-08
6.83645e-08
5.24208e-08
8.23727e-08
4.37272e-08
9.88889e-08
3.16449e-08
1.18303e-07
1.55235e-08
1.41054e-07
-5.39383e-09
1.67633e-07
-3.19853e-08
1.98592e-07
-6.52672e-08
2.34551e-07
-1.06426e-07
2.7621e-07
-1.56762e-07
-2.18179e-07
3.24431e-07
4.46114e-11
1.62093e-09
1.86133e-10
4.92321e-09
4.40235e-10
8.47258e-09
8.2576e-10
1.22536e-08
1.36532e-09
1.62437e-08
2.08601e-09
2.04119e-08
3.0202e-09
2.4718e-08
4.20651e-09
2.91108e-08
5.69084e-09
3.35269e-08
7.5276e-09
3.7889e-08
9.78105e-09
4.2104e-08
1.25268e-08
4.6061e-08
1.58537e-08
4.96284e-08
1.98658e-08
5.26517e-08
2.46843e-08
5.49497e-08
3.04498e-08
5.63111e-08
3.73253e-08
5.649e-08
4.54987e-08
5.52005e-08
5.51861e-08
5.21109e-08
6.66346e-08
4.68361e-08
8.01259e-08
3.89296e-08
9.59792e-08
2.78738e-08
1.14555e-07
1.30688e-08
1.36259e-07
-6.18012e-09
1.61541e-07
-3.0676e-08
1.90904e-07
-6.13482e-08
2.24907e-07
-9.92701e-08
2.64175e-07
-1.45694e-07
3.09407e-07
-2.01994e-07
-2.70242e-07
3.61471e-07
5.19776e-11
1.56895e-09
2.17841e-10
4.75734e-09
5.1677e-10
8.17365e-09
9.71504e-10
1.17989e-08
1.60897e-09
1.56062e-08
2.46102e-09
1.95599e-08
3.56527e-09
2.36138e-08
4.96606e-09
2.771e-08
6.71559e-09
3.17774e-08
8.8751e-09
3.57295e-08
1.15163e-08
3.94628e-08
1.4723e-08
4.28542e-08
1.85931e-08
4.57584e-08
2.32401e-08
4.80047e-08
2.87956e-08
4.93942e-08
3.54118e-08
4.96949e-08
4.32638e-08
4.8638e-08
5.25527e-08
4.59116e-08
6.35086e-08
4.1155e-08
7.63933e-08
3.39514e-08
9.15038e-08
2.38191e-08
1.09175e-07
1.02025e-08
1.29783e-07
-7.53866e-09
1.53744e-07
-3.01411e-08
1.8152e-07
-5.84529e-08
2.13624e-07
-9.34515e-08
2.50615e-07
-1.36261e-07
2.93114e-07
-1.88193e-07
3.41814e-07
-2.50693e-07
-3.25994e-07
3.97566e-07
5.83834e-11
1.51056e-09
2.45797e-10
4.56993e-09
5.84914e-10
7.83454e-09
1.10237e-09
1.12814e-08
1.82943e-09
1.48792e-08
2.80273e-09
1.85866e-08
4.06517e-09
2.23513e-08
5.66691e-09
2.61082e-08
7.66651e-09
2.97778e-08
1.01322e-08
3.32638e-08
1.31433e-08
3.64517e-08
1.6792e-08
3.92055e-08
2.11852e-08
4.13652e-08
2.64464e-08
4.27436e-08
3.27178e-08
4.31227e-08
4.01633e-08
4.22495e-08
4.89705e-08
3.98308e-08
5.93538e-08
3.55282e-08
7.15576e-08
2.89513e-08
8.58586e-08
1.96504e-08
1.02569e-07
7.10871e-09
1.22038e-07
-9.26685e-09
1.44655e-07
-3.01555e-08
1.70849e-07
-5.63348e-08
2.01091e-07
-8.8695e-08
2.35895e-07
-1.28256e-07
2.75818e-07
-1.76184e-07
3.21467e-07
-2.33842e-07
3.73513e-07
-3.02739e-07
-3.85252e-07
4.3277e-07
6.40308e-11
1.44653e-09
2.70782e-10
4.36318e-09
6.46409e-10
7.45891e-09
1.22144e-09
1.07064e-08
2.03149e-09
1.40691e-08
3.118e-09
1.75001e-08
4.52923e-09
2.09401e-08
6.32121e-09
2.43163e-08
8.55895e-09
2.754e-08
1.13178e-08
3.0505e-08
1.46849e-08
3.30846e-08
1.8761e-08
3.51294e-08
2.36622e-08
3.64639e-08
2.95221e-08
3.68836e-08
3.64941e-08
3.61507e-08
4.47538e-08
3.39898e-08
5.45015e-08
3.0083e-08
6.59656e-08
2.40642e-08
7.94045e-08
1.55124e-08
9.51099e-08
3.94498e-09
1.13408e-07
-1.11898e-08
1.34663e-07
-3.05216e-08
1.59275e-07
-5.47677e-08
1.87685e-07
-8.4744e-08
2.20367e-07
-1.21377e-07
2.57832e-07
-1.65721e-07
3.00625e-07
-2.18977e-07
3.49327e-07
-2.82544e-07
4.04575e-07
-3.57987e-07
-4.47787e-07
4.67111e-07
6.91471e-11
1.37739e-09
2.93684e-10
4.13865e-09
7.03231e-10
7.04936e-09
1.33222e-09
1.00774e-08
2.2206e-09
1.31807e-08
3.4147e-09
1.6306e-08
4.96814e-09
1.93866e-08
6.94292e-09
2.23415e-08
9.41062e-09
2.50723e-08
1.24538e-08
2.74618e-08
1.61677e-08
2.93708e-08
2.06617e-08
3.06354e-08
2.60614e-08
3.10642e-08
3.25108e-08
3.04342e-08
4.01746e-08
2.8487e-08
4.92404e-08
2.4924e-08
5.99218e-08
1.94016e-08
7.24607e-08
1.15252e-08
8.71303e-08
8.42856e-10
1.04236e-07
-1.31609e-08
1.24119e-07
-3.10723e-08
1.47154e-07
-5.35572e-08
1.73755e-07
-8.13686e-08
2.04367e-07
-1.15356e-07
2.39464e-07
-1.56475e-07
2.79547e-07
-2.05804e-07
3.25135e-07
-2.64565e-07
3.76768e-07
-3.34177e-07
4.35037e-07
-4.16257e-07
-5.13308e-07
5.00558e-07
7.3974e-11
1.30342e-09
3.15444e-10
3.89718e-09
7.57492e-10
6.60732e-09
1.43844e-09
9.39645e-09
2.40263e-09
1.22166e-08
3.70127e-09
1.50073e-08
5.39342e-09
1.76945e-08
7.54713e-09
2.01878e-08
1.02407e-08
2.23788e-08
1.3564e-08
2.41384e-08
1.76205e-08
2.53143e-08
2.25284e-08
2.57275e-08
2.84232e-08
2.51695e-08
3.54593e-08
2.33981e-08
4.3813e-08
2.01333e-08
5.36843e-08
1.50527e-08
6.53001e-08
7.78584e-09
7.89161e-08
-2.09078e-09
9.48189e-08
-1.506e-08
1.13328e-07
-3.167e-08
1.34798e-07
-5.25418e-08
1.59616e-07
-7.83752e-08
1.88202e-07
-1.09955e-07
2.21004e-07
-1.48158e-07
2.58489e-07
-1.93959e-07
3.01134e-07
-2.48448e-07
3.4942e-07
-3.12851e-07
4.03828e-07
-3.88586e-07
4.64885e-07
-4.77314e-07
-5.81431e-07
5.33008e-07
7.87562e-11
1.22466e-09
3.37022e-10
3.63891e-09
8.11337e-10
6.133e-09
1.54394e-09
8.66385e-09
2.58355e-09
1.11769e-08
3.98633e-09
1.36045e-08
5.81685e-09
1.5864e-08
8.14925e-09
1.78554e-08
1.10686e-08
1.94594e-08
1.46726e-08
2.05345e-08
1.90726e-08
2.09143e-08
2.43961e-08
2.0404e-08
3.07885e-08
1.87771e-08
3.84151e-08
1.57715e-08
4.74637e-08
1.10847e-08
5.81471e-08
4.36927e-09
7.0705e-08
-4.77204e-09
8.54063e-08
-1.67921e-08
1.02551e-07
-3.22049e-08
1.22473e-07
-5.15918e-08
1.45538e-07
-7.56063e-08
1.72142e-07
-1.04979e-07
2.0271e-07
-1.40523e-07
2.37687e-07
-1.83134e-07
2.77522e-07
-2.33795e-07
3.2266e-07
-2.93586e-07
3.73522e-07
-3.63714e-07
4.30501e-07
-4.45565e-07
4.94046e-07
-5.40858e-07
-6.51636e-07
5.64251e-07
8.37307e-11
1.14093e-09
3.59347e-10
3.36329e-09
8.66853e-10
5.62549e-09
1.65241e-09
7.87829e-09
2.76919e-09
1.00602e-08
4.2783e-09
1.20954e-08
6.24988e-09
1.38924e-08
8.76432e-09
1.53409e-08
1.19137e-08
1.63101e-08
1.5803e-08
1.66451e-08
2.05525e-08
1.61649e-08
2.62986e-08
1.46578e-08
3.31969e-08
1.18788e-08
4.14236e-08
7.54472e-09
5.11785e-08
1.32985e-09
6.26862e-08
-7.13846e-09
7.61993e-08
-1.82851e-08
9.19997e-08
-3.25926e-08
1.10401e-07
-5.06061e-08
1.31748e-07
-7.29386e-08
1.56416e-07
-1.00275e-07
1.84809e-07
-1.33373e-07
2.17352e-07
-1.73066e-07
2.54478e-07
-2.20261e-07
2.96616e-07
-2.75933e-07
3.44159e-07
-3.41129e-07
3.97448e-07
-4.17003e-07
4.56736e-07
-5.04853e-07
5.22386e-07
-6.06508e-07
-7.23204e-07
5.93954e-07
8.91175e-11
1.05181e-09
3.83281e-10
3.06913e-09
9.25978e-10
5.0828e-09
1.76732e-09
7.03695e-09
2.96494e-09
8.86254e-09
4.58497e-09
1.04754e-08
6.70319e-09
1.17742e-08
9.4063e-09
1.26378e-08
1.27933e-08
1.2923e-08
1.69772e-08
1.24613e-08
2.20864e-08
1.10557e-08
2.82669e-08
8.47726e-09
3.56845e-08
4.46133e-09
4.45262e-08
-1.29698e-09
5.5003e-08
-9.14699e-09
6.73518e-08
-1.94873e-08
8.18375e-08
-3.27708e-08
9.87544e-08
-4.95095e-08
1.18427e-07
-7.02791e-08
1.41212e-07
-9.57227e-08
1.6749e-07
-1.26553e-07
1.97668e-07
-1.63551e-07
2.32166e-07
-2.07564e-07
2.71405e-07
-2.595e-07
3.1578e-07
-3.20308e-07
3.65626e-07
-3.90975e-07
4.21173e-07
-4.7255e-07
4.82454e-07
-5.66134e-07
5.49665e-07
-6.73719e-07
-7.95157e-07
6.21617e-07
9.51105e-11
9.56701e-10
4.09589e-10
2.75465e-09
9.90428e-10
4.50196e-09
1.89172e-09
6.13566e-09
3.1756e-09
7.57866e-09
4.91327e-09
8.73774e-09
7.1862e-09
9.50124e-09
1.00875e-08
9.73653e-09
1.37232e-08
9.2873e-09
1.82141e-08
7.97041e-09
2.36972e-08
5.57255e-09
3.03279e-08
1.84654e-09
3.82818e-08
-3.49262e-09
4.77568e-08
-1.0772e-08
5.8975e-08
-2.03652e-08
7.21849e-08
-3.26972e-08
8.76629e-08
-4.82487e-08
1.05714e-07
-6.75609e-08
1.26674e-07
-9.12384e-08
1.50903e-07
-1.19952e-07
1.78789e-07
-1.54439e-07
2.10736e-07
-1.95498e-07
2.47157e-07
-2.43985e-07
2.88452e-07
-3.00794e-07
3.34983e-07
-3.66839e-07
3.87025e-07
-4.43017e-07
4.44689e-07
-5.30213e-07
5.07701e-07
-6.29145e-07
5.75733e-07
-7.41751e-07
-8.65976e-07
6.46552e-07
1.01871e-10
8.54829e-10
4.38906e-10
2.41761e-09
1.06163e-09
3.87923e-09
2.02816e-09
5.16913e-09
3.40516e-09
6.20167e-09
5.26895e-09
6.87395e-09
7.70677e-09
7.06341e-09
1.08181e-08
6.62522e-09
1.47161e-08
5.38931e-09
1.95293e-08
3.15722e-09
2.54033e-08
-3.01478e-10
3.25027e-08
-5.25287e-09
4.10129e-08
-1.20028e-08
5.1142e-08
-2.09011e-08
6.31229e-08
-3.23461e-08
7.72149e-08
-4.67892e-08
9.37046e-08
-6.47384e-08
1.12906e-07
-8.67626e-08
1.35161e-07
-1.13494e-07
1.60836e-07
-1.45627e-07
1.90317e-07
-1.83919e-07
2.24e-07
-2.29182e-07
2.62286e-07
-2.8227e-07
3.05552e-07
-3.4406e-07
3.54132e-07
-4.15419e-07
4.08265e-07
-4.97151e-07
4.67994e-07
-5.89942e-07
5.32894e-07
-6.94045e-07
6.01595e-07
-8.10452e-07
-9.32058e-07
6.67677e-07
1.09524e-10
7.45304e-10
4.71724e-10
2.05541e-09
1.1407e-09
3.21025e-09
2.17862e-09
4.13121e-09
3.65671e-09
4.72358e-09
5.65647e-09
4.87419e-09
8.27089e-09
4.449e-09
1.16058e-08
3.29028e-09
1.57816e-08
1.21359e-09
2.09343e-08
-1.99554e-09
2.72181e-08
-6.58524e-09
3.48063e-08
-1.28411e-08
4.3894e-08
-2.10904e-08
5.46991e-08
-3.17062e-08
6.74645e-08
-4.51115e-08
8.24586e-08
-6.17833e-08
9.99766e-08
-8.22564e-08
1.20339e-07
-1.07125e-07
1.43892e-07
-1.37046e-07
1.71001e-07
-1.72735e-07
2.02045e-07
-2.14963e-07
2.37409e-07
-2.64546e-07
2.77471e-07
-3.22332e-07
3.22581e-07
-3.89171e-07
3.73047e-07
-4.65885e-07
4.29099e-07
-5.53202e-07
4.90841e-07
-6.51684e-07
5.58298e-07
-7.61502e-07
6.31206e-07
-8.83361e-07
-1.01471e-06
7.13861e-07
1.1816e-10
6.27144e-10
5.08398e-10
1.66517e-09
1.22843e-09
2.49021e-09
2.34449e-09
3.01515e-09
3.93243e-09
3.13564e-09
6.0789e-09
2.72772e-09
8.88266e-09
1.64524e-09
1.24559e-08
-2.82976e-10
1.69259e-08
-3.25637e-09
2.24364e-08
-7.50603e-09
2.91495e-08
-1.32984e-08
3.72475e-08
-2.09391e-08
4.69341e-08
-3.07771e-08
5.84364e-08
-4.32086e-08
7.20059e-08
-5.8681e-08
8.7919e-08
-7.76963e-08
1.06477e-07
-1.00814e-07
1.28004e-07
-1.28653e-07
1.52845e-07
-1.61888e-07
1.81361e-07
-2.01251e-07
2.13918e-07
-2.4752e-07
2.5088e-07
-3.01508e-07
2.92591e-07
-3.64043e-07
3.39359e-07
-4.35939e-07
3.91434e-07
-5.1796e-07
4.48976e-07
-6.10744e-07
5.12053e-07
-7.14761e-07
5.80718e-07
-8.30167e-07
6.54775e-07
-9.57418e-07
-1.0936e-06
7.33663e-07
1.27825e-10
4.99318e-10
5.49115e-10
1.24388e-09
1.32523e-09
1.7141e-09
2.52652e-09
1.81386e-09
4.23345e-09
1.4287e-09
6.53784e-09
4.23326e-10
9.54411e-09
-1.36103e-09
1.33707e-08
-4.1096e-09
1.81518e-08
-8.03738e-09
2.40383e-08
-1.33926e-08
3.12004e-08
-2.04605e-08
3.98283e-08
-2.9567e-08
5.01341e-08
-4.10828e-08
6.23526e-08
-5.54271e-08
7.67427e-08
-7.3071e-08
9.35863e-08
-9.454e-08
1.13188e-07
-1.20416e-07
1.35874e-07
-1.51338e-07
1.61982e-07
-1.87996e-07
1.91862e-07
-2.31131e-07
2.25862e-07
-2.8152e-07
2.64313e-07
-3.39959e-07
3.07514e-07
-4.07245e-07
3.55714e-07
-4.84138e-07
4.09069e-07
-5.71315e-07
4.67627e-07
-6.69302e-07
5.31317e-07
-7.7845e-07
5.99911e-07
-8.98762e-07
6.72745e-07
-1.03025e-06
-1.16934e-06
7.48484e-07
1.38533e-10
3.60785e-10
5.93924e-10
7.88495e-10
1.43121e-09
8.76813e-10
2.72488e-09
5.20191e-10
4.56002e-09
-4.06434e-10
7.03351e-09
-2.05017e-09
1.02554e-08
-4.58291e-09
1.43503e-08
-8.20448e-09
1.94588e-08
-1.31459e-08
2.57391e-08
-1.9673e-08
3.33686e-08
-2.809e-08
4.2545e-08
-3.87433e-08
5.34874e-08
-5.20252e-08
6.64375e-08
-6.83773e-08
8.16594e-08
-8.82929e-08
9.94387e-08
-1.12319e-07
1.20081e-07
-1.41058e-07
1.43907e-07
-1.75163e-07
1.71246e-07
-2.15336e-07
2.02432e-07
-2.62317e-07
2.37782e-07
-3.1687e-07
2.7759e-07
-3.79767e-07
3.22101e-07
-4.51755e-07
3.7148e-07
-5.33517e-07
4.2578e-07
-6.25616e-07
4.84931e-07
-7.28452e-07
5.48684e-07
-8.42204e-07
6.16562e-07
-9.6664e-07
6.87651e-07
-1.10134e-06
-1.2423e-06
7.60614e-07
1.50264e-10
2.10522e-10
6.42744e-10
2.96016e-10
1.54619e-09
-2.66341e-11
2.93922e-09
-8.72838e-10
4.91147e-09
-2.37869e-09
7.56487e-09
-4.70356e-09
1.10149e-08
-8.03297e-09
1.53922e-08
-1.25817e-08
2.08436e-08
-1.85973e-08
2.75339e-08
-2.63633e-08
3.56472e-08
-3.62032e-08
4.53876e-08
-4.84837e-08
5.69805e-08
-6.36182e-08
7.06726e-08
-8.20694e-08
8.67314e-08
-1.04352e-07
1.05443e-07
-1.31031e-07
1.27111e-07
-1.62726e-07
1.52048e-07
-2.001e-07
1.80569e-07
-2.43857e-07
2.12982e-07
-2.9473e-07
2.49573e-07
-3.53462e-07
2.90587e-07
-4.20781e-07
3.36202e-07
-4.9737e-07
3.86494e-07
-5.83809e-07
4.41416e-07
-6.80538e-07
5.00772e-07
-7.87808e-07
5.64155e-07
-9.05587e-07
6.30921e-07
-1.03341e-06
7.0006e-07
-1.17048e-06
-1.31258e-06
7.7034e-07
1.6297e-10
4.75526e-11
6.95383e-10
-2.36396e-10
1.66971e-09
-1.00096e-09
3.16868e-09
-2.37181e-09
5.28644e-09
-4.49645e-09
8.12982e-09
-7.54694e-09
1.18197e-08
-1.17228e-08
1.64921e-08
-1.72542e-08
2.23001e-08
-2.44053e-08
2.94143e-08
-3.34776e-08
3.80248e-08
-4.48137e-08
4.83413e-08
-5.88002e-08
6.05939e-08
-7.58708e-08
7.50326e-08
-9.65081e-08
9.1926e-08
-1.21245e-07
1.11559e-07
-1.50664e-07
1.34226e-07
-1.85394e-07
1.60231e-07
-2.26104e-07
1.89867e-07
-2.73494e-07
2.23414e-07
-3.28278e-07
2.61117e-07
-3.91165e-07
3.03166e-07
-4.6283e-07
3.49662e-07
-5.43866e-07
4.00594e-07
-6.3474e-07
4.55817e-07
-7.35762e-07
5.15013e-07
-8.47004e-07
5.77646e-07
-9.6822e-07
6.42972e-07
-1.09873e-06
7.09949e-07
-1.23746e-06
-1.38011e-06
7.77474e-07
1.7658e-10
-1.29027e-10
7.51558e-10
-8.11372e-10
1.80112e-09
-2.05052e-09
3.41205e-09
-3.98274e-09
5.68293e-09
-6.76733e-09
8.72535e-09
-1.05894e-08
1.26652e-08
-1.56627e-08
1.7644e-08
-2.2233e-08
2.38199e-08
-3.05812e-08
3.13693e-08
-4.10269e-08
4.0487e-08
-5.39314e-08
5.13871e-08
-6.97004e-08
6.4303e-08
-8.87866e-08
7.9486e-08
-1.11691e-07
9.72033e-08
-1.38962e-07
1.17735e-07
-1.71195e-07
1.41366e-07
-2.09025e-07
1.68381e-07
-2.53119e-07
1.99051e-07
-3.04164e-07
2.33622e-07
-3.62848e-07
2.72291e-07
-4.29834e-07
3.15183e-07
-5.05722e-07
3.62323e-07
-5.91005e-07
4.13617e-07
-6.86034e-07
4.68821e-07
-7.90966e-07
5.27502e-07
-9.05685e-07
5.89036e-07
-1.02975e-06
6.52612e-07
-1.16231e-06
7.17189e-07
-1.30203e-06
-1.44471e-06
7.81793e-07
1.91008e-10
-3.20034e-10
8.10913e-10
-1.43128e-09
1.93959e-09
-3.1792e-09
3.66782e-09
-5.71098e-09
6.09847e-09
-9.19798e-09
9.3477e-09
-1.38386e-08
1.35462e-08
-1.98611e-08
1.88402e-08
-2.7527e-08
2.5393e-08
-3.7134e-08
3.33852e-08
-4.90192e-08
4.3016e-08
-6.35621e-08
5.45023e-08
-8.11867e-08
6.80791e-08
-1.02363e-07
8.39967e-08
-1.27609e-07
1.02519e-07
-1.57484e-07
1.23916e-07
-1.92593e-07
1.48461e-07
-2.3357e-07
1.76417e-07
-2.81075e-07
2.08027e-07
-3.35774e-07
2.43494e-07
-3.98316e-07
2.82964e-07
-4.69304e-07
3.26493e-07
-5.49251e-07
3.74033e-07
-6.38545e-07
4.25406e-07
-7.37407e-07
4.80268e-07
-8.45828e-07
5.38096e-07
-9.63513e-07
5.98201e-07
-1.08986e-06
6.59728e-07
-1.22384e-06
7.21663e-07
-1.36397e-06
-1.5062e-06
7.8315e-07
2.06155e-10
-5.26188e-10
8.73041e-10
-2.09816e-09
2.08417e-09
-4.39033e-09
3.93421e-09
-7.56102e-09
6.53016e-09
-1.17939e-08
9.99248e-09
-1.73009e-08
1.44562e-08
-2.43249e-08
2.00721e-08
-3.31429e-08
2.70075e-08
-4.40694e-08
3.54469e-08
-5.74585e-08
4.5592e-08
-7.37072e-08
5.76616e-08
-9.32564e-08
7.18902e-08
-1.16592e-07
8.85252e-08
-1.44244e-07
1.07823e-07
-1.76782e-07
1.30044e-07
-2.14813e-07
1.55442e-07
-2.58968e-07
1.84256e-07
-3.09889e-07
2.16694e-07
-3.68212e-07
2.52917e-07
-4.34538e-07
2.93007e-07
-5.09395e-07
3.36957e-07
-5.93201e-07
3.84645e-07
-6.86233e-07
4.35808e-07
-7.88569e-07
4.90012e-07
-9.00032e-07
5.46668e-07
-1.02017e-06
6.05033e-07
-1.14822e-06
6.64234e-07
-1.28304e-06
7.23302e-07
-1.42304e-06
-1.56438e-06
7.81486e-07
2.2191e-10
-7.48098e-10
9.37493e-10
-2.81374e-09
2.23381e-09
-5.68665e-09
4.20929e-09
-9.5365e-09
6.97483e-09
-1.45595e-08