/*--------------------------------*- C++ -*----------------------------------*\
| =========                 |                                                 |
| \\      /  F ield         | foam-extend: Open Source CFD                    |
|  \\    /   O peration     | Version:     4.0                                |
|   \\  /    A nd           | Web:         http://www.foam-extend.org         |
|    \\/     M anipulation  |                                                 |
\*---------------------------------------------------------------------------*/
FoamFile
{
    version     2.0;
    format      ascii;
    class       volVectorField;
    location    "65";
    object      U;
}
// * * * * * * * * * * * * * * * * * * * * * * * * * * * * * * * * * * * * * //

dimensions      [0 1 -1 0 0 0 0];

internalField   nonuniform List<vector> 
36000
(
(-3.08585e-07 1.43643e-06 -2.55024e-25)
(-3.09193e-06 4.08891e-06 2.63309e-25)
(-8.89926e-06 6.60465e-06 0)
(-1.77947e-05 8.9772e-06 0)
(-2.97874e-05 1.12011e-05 -2.28592e-25)
(-4.49045e-05 1.32709e-05 -2.16814e-25)
(-6.31733e-05 1.51818e-05 0)
(-8.45992e-05 1.69299e-05 0)
(-0.000109162 1.85121e-05 0)
(-0.000136816 1.99261e-05 0)
(-0.000167489 2.11704e-05 0)
(-0.000201085 2.22441e-05 -3.03321e-25)
(-0.00023748 2.31472e-05 -5.33354e-28)
(-0.000276521 2.388e-05 -2.65312e-25)
(-0.000318031 2.44431e-05 2.47798e-25)
(-0.000361801 2.48374e-05 -2.30505e-25)
(-0.000407595 2.50638e-05 4.29798e-25)
(-0.000455148 2.51228e-05 -1.99818e-25)
(-0.000504163 2.50144e-05 1.85214e-25)
(-0.000554311 2.47374e-05 5.15769e-25)
(-0.000605225 2.42892e-05 1.35046e-28)
(-0.0006565 2.36653e-05 5.88672e-25)
(-0.000707682 2.28582e-05 -1.35757e-25)
(-0.000758266 2.18582e-05 -2.50164e-25)
(-0.000807683 2.06518e-05 -2.30428e-25)
(-0.000855293 1.92223e-05 0)
(-0.000900371 1.75491e-05 0)
(-0.000942102 1.56056e-05 0)
(-0.000979519 1.3351e-05 1.6096e-25)
(-0.00101143 1.07423e-05 -2.93755e-25)
(-4.55564e-07 4.3216e-06 0)
(-3.48097e-06 1.23063e-05 0)
(-9.47679e-06 1.98844e-05 0)
(-1.85064e-05 2.70363e-05 9.64769e-25)
(-3.05789e-05 3.37453e-05 -2.2607e-25)
(-4.57211e-05 3.99949e-05 2.16797e-25)
(-6.39596e-05 4.57704e-05 0)
(-8.52993e-05 5.10594e-05 0)
(-0.000109719 5.58522e-05 -7.32601e-25)
(-0.000137174 6.01415e-05 6.87122e-25)
(-0.00016759 6.39222e-05 -6.475e-25)
(-0.000200871 6.71916e-05 6.0551e-25)
(-0.000236891 6.99485e-05 2.83751e-25)
(-0.000275497 7.21936e-05 2.65212e-25)
(-0.000316509 7.39283e-05 4.94927e-25)
(-0.000359717 7.51547e-05 0)
(-0.000404882 7.58751e-05 -1.29033e-24)
(-0.000451735 7.60908e-05 -1.29491e-27)
(-0.000499977 7.58012e-05 1.48394e-24)
(-0.000549271 7.50024e-05 -1.03125e-24)
(-0.000599248 7.36865e-05 -6.37485e-25)
(-0.000649493 7.18394e-05 5.89747e-25)
(-0.000699547 6.9439e-05 -5.435e-25)
(-0.000748895 6.6455e-05 1.0031e-24)
(-0.00079696 6.28474e-05 1.56803e-28)
(-0.000843091 5.85655e-05 8.46716e-25)
(-0.000886554 5.35475e-05 -1.16594e-24)
(-0.000926533 4.77127e-05 0)
(-0.000962051 4.09405e-05 0)
(-0.000991659 3.31085e-05 0)
(-7.45612e-07 7.13672e-06 1.02506e-24)
(-4.24893e-06 2.0329e-05 5.50676e-27)
(-1.0617e-05 3.28569e-05 -1.51831e-24)
(-1.99117e-05 4.46873e-05 1.93479e-24)
(-3.2142e-05 5.57916e-05 -2.28847e-24)
(-4.73339e-05 6.61422e-05 -1.74326e-24)
(-6.55125e-05 7.57136e-05 3.29266e-24)
(-8.66817e-05 8.44848e-05 -1.55211e-24)
(-0.000110819 9.24388e-05 0)
(-0.000137878 9.95624e-05 0)
(-0.000167786 0.000105846 0)
(-0.000200441 0.000111285 0)
(-0.000235718 0.000115876 1.13902e-24)
(-0.00027346 0.00011962 -2.6582e-24)
(-0.000313484 0.000122517 1.98581e-24)
(-0.000355575 0.00012457 0)
(-0.000399491 0.000125784 8.62078e-25)
(-0.000444955 0.000126158 -7.99995e-25)
(-0.000491658 0.000125692 0)
(-0.000539258 0.000124378 0)
(-0.000587371 0.000122203 3.19169e-24)
(-0.000635572 0.000119143 -1.76865e-24)
(-0.000683385 0.000115161 0)
(-0.00073028 0.000110207 6.13485e-28)
(-0.000775661 0.000104215 -9.24405e-25)
(-0.000818856 9.71017e-05 -8.52725e-25)
(-0.000859116 8.87653e-05 7.74489e-25)
(-0.000895621 7.90727e-05 7.12883e-25)
(-0.000927381 6.78301e-05 0)
(-0.000952428 5.48583e-05 1.76979e-24)
(-1.17014e-06 9.83736e-06 0)
(-5.37345e-06 2.80336e-05 0)
(-1.22872e-05 4.53266e-05 5.07755e-25)
(-2.19706e-05 6.16696e-05 -1.94262e-24)
(-3.44325e-05 7.70217e-05 3.68337e-24)
(-4.9697e-05 9.13432e-05 -2.61804e-24)
(-6.77874e-05 0.000104597 0)
(-8.87052e-05 0.000116754 0)
(-0.000112427 0.000127786 -2.21003e-24)
(-0.000138903 0.000137676 2.76732e-24)
(-0.000168058 0.000146408 -1.29776e-24)
(-0.00019979 0.000153972 -1.22109e-24)
(-0.000233969 0.000160364 2.28442e-24)
(-0.000270434 0.000165581 -2.13043e-24)
(-0.000308996 0.000169624 -9.94059e-25)
(-0.000349435 0.000172496 0)
(-0.0003915 0.0001742 -3.45898e-24)
(-0.000434906 0.000174735 -4.20932e-27)
(-0.000479332 0.000174099 2.98457e-24)
(-0.000524422 0.00017228 3.36573e-27)
(-0.000569775 0.000169259 2.24798e-27)
(-0.000614948 0.000165002 7.13843e-28)
(-0.000659443 0.000159458 -1.09205e-24)
(-0.000702706 0.000152557 2.01782e-24)
(-0.000744116 0.000144209 0)
(-0.000782972 0.000134298 -6.81288e-28)
(-0.000818499 0.000122687 3.12247e-24)
(-0.000849871 0.000109193 -1.43283e-24)
(-0.0008761 9.35565e-05 -3.92164e-24)
(-0.000894425 7.55628e-05 -3.55751e-24)
(-1.71675e-06 1.23825e-05 1.55363e-24)
(-6.82213e-06 3.53055e-05 -3.21331e-24)
(-1.44397e-05 5.71119e-05 2.04206e-24)
(-2.4625e-05 7.77408e-05 1.95288e-24)
(-3.73858e-05 9.71384e-05 -1.84748e-24)
(-5.27439e-05 0.000115252 8.75294e-25)
(-7.07191e-05 0.000132033 -2.49331e-24)
(-9.13101e-05 0.000147439 6.26895e-24)
(-0.00011449 0.000161436 -7.31388e-25)
(-0.000140207 0.000173996 1.39305e-24)
(-0.000168383 0.000185097 -1.30808e-24)
(-0.00019891 0.000194724 1.22098e-24)
(-0.000231654 0.000202868 0)
(-0.00026645 0.000209523 0)
(-0.000303102 0.000214688 4.00224e-24)
(-0.00034138 0.000218364 -1.8603e-24)
(-0.000381024 0.000220552 1.73017e-24)
(-0.000421735 0.00022125 1.60827e-24)
(-0.000463178 0.000220452 -2.99175e-24)
(-0.00050498 0.000218141 -4.16111e-24)
(-0.000546718 0.000214291 1.28316e-24)
(-0.000587925 0.000208859 4.75451e-24)
(-0.000628078 0.000201778 -2.19199e-24)
(-0.00066659 0.000192961 8.42786e-27)
(-0.000702807 0.000182294 1.86543e-24)
(-0.000735994 0.000169634 -1.71447e-24)
(-0.000765342 0.000154808 -1.56599e-24)
(-0.000790014 0.000137589 6.25262e-27)
(-0.000809067 0.000117658 1.29928e-24)
(-0.000818625 9.48127e-05 2.37523e-24)
(-2.3697e-06 1.47358e-05 4.68685e-24)
(-8.55385e-06 4.20426e-05 -1.07631e-24)
(-1.7014e-05 6.80501e-05 0)
(-2.78005e-05 9.26827e-05 -9.84635e-25)
(-4.09196e-05 0.000115873 -4.66724e-24)
(-5.63892e-05 0.000137554 5.29577e-24)
(-7.42244e-05 0.000157664 2.51191e-24)
(-9.44193e-05 0.00017615 -1.56576e-24)
(-0.000116943 0.000192965 1.49273e-24)
(-0.00014174 0.000208071 -6.97842e-24)
(-0.000168725 0.00022144 3.92688e-24)
(-0.000197788 0.000233048 -1.22842e-24)
(-0.000228788 0.000242879 4.60125e-24)
(-0.000261551 0.000250924 -2.14788e-24)
(-0.000295874 0.000257177 -6.02239e-24)
(-0.000331516 0.000261636 3.73993e-24)
(-0.000368203 0.000264297 -3.48077e-24)
(-0.000405624 0.000265156 -5.2323e-27)
(-0.000443424 0.000264202 -1.51209e-24)
(-0.000481208 0.000261414 -1.39685e-24)
(-0.00051853 0.000256755 5.15679e-24)
(-0.000554894 0.000250173 -4.76292e-24)
(-0.000589744 0.000241588 0)
(-0.000622459 0.000230894 -2.03173e-24)
(-0.000652348 0.000217956 -1.86684e-24)
(-0.000678631 0.000202604 -3.45218e-24)
(-0.000700461 0.000184637 3.16306e-24)
(-0.000716981 0.000163789 0)
(-0.000727361 0.000139708 6.58796e-24)
(-0.000726258 0.000112209 -1.20344e-24)
(-3.11062e-06 1.68663e-05 0)
(-1.05204e-05 4.81575e-05 0)
(-1.99389e-05 7.8001e-05 0)
(-3.141e-05 0.000106306 -7.94208e-27)
(-4.49366e-05 0.000132991 6.57767e-24)
(-6.05316e-05 0.000157974 -5.3206e-24)
(-7.82034e-05 0.000181178 3.36595e-24)
(-9.79402e-05 0.000202538 -6.33953e-24)
(-0.000119705 0.000221994 -1.49895e-24)
(-0.000143436 0.000239498 -2.81253e-24)
(-0.000169043 0.000255008 2.63392e-24)
(-0.000196408 0.000268494 1.24169e-24)
(-0.000225381 0.000279931 9.3547e-27)
(-0.000255781 0.000289303 0)
(-0.000287393 0.000296597 -1.07302e-26)
(-0.000319964 0.000301807 1.8771e-24)
(-0.000353205 0.000304924 -1.74122e-24)
(-0.000386787 0.000305939 1.62162e-24)
(-0.000420335 0.000304833 6.03649e-24)
(-0.000453429 0.00030158 -5.68813e-27)
(-0.000485597 0.000296134 -2.59489e-24)
(-0.000516309 0.000288431 -2.38945e-24)
(-0.000544975 0.000278378 -6.6938e-27)
(-0.000570936 0.000265852 -2.05748e-24)
(-0.000593457 0.000250698 -3.77021e-24)
(-0.000611713 0.000232723 5.18714e-24)
(-0.000624818 0.000211692 -1.57568e-24)
(-0.000631875 0.000187316 -2.90022e-24)
(-0.00063229 0.000159287 -5.29245e-24)
(-0.000618743 0.000127342 2.42278e-24)
(-3.91919e-06 1.87492e-05 -4.24585e-24)
(-1.26685e-05 5.35797e-05 0)
(-2.31356e-05 8.68506e-05 -4.19896e-24)
(-3.5356e-05 0.000118456 4.97263e-24)
(-4.9328e-05 0.000148298 -5.67253e-24)
(-6.50572e-05 0.00017628 7.16468e-24)
(-8.25438e-05 0.00020231 -6.77161e-24)
(-0.000101768 0.000226307 1.58343e-24)
(-0.000122684 0.000248198 2.99348e-24)
(-0.000145223 0.000267922 -7.20628e-27)
(-0.000169286 0.000285424 -5.31382e-24)
(-0.000194745 0.000300664 4.97791e-24)
(-0.000221442 0.000313606 -4.64522e-24)
(-0.000249185 0.000324225 -8.69413e-24)
(-0.000277744 0.000332501 6.07466e-24)
(-0.000306854 0.00033842 1.88436e-24)
(-0.000336208 0.000341966 -5.28024e-24)
(-0.000365456 0.000343122 -3.27745e-24)
(-0.000394202 0.000341865 -3.0258e-24)
(-0.000421998 0.000338157 8.43998e-24)
(-0.000448343 0.000331944 -2.61685e-24)
(-0.000472673 0.00032315 7.19568e-27)
(-0.00049436 0.00031167 -4.46749e-24)
(-0.000512706 0.000297364 8.21043e-24)
(-0.000526931 0.000280056 3.77054e-24)
(-0.000536164 0.000259528 -3.46723e-24)
(-0.000539476 0.000235544 1.36464e-26)
(-0.000535922 0.000207776 2.92929e-24)
(-0.000525306 0.000175918 5.32606e-24)
(-0.000497642 0.000139771 -7.3045e-24)
(-4.77397e-06 2.03667e-05 4.29693e-24)
(-1.49414e-05 5.82569e-05 -5.5527e-24)
(-2.65199e-05 9.45127e-05 -4.23863e-24)
(-3.95346e-05 0.000129013 4.01769e-24)
(-5.39772e-05 0.000161642 3.82123e-24)
(-6.98438e-05 0.000192289 -1.79354e-24)
(-8.71239e-05 0.000220846 0)
(-0.000105787 0.000247214 0)
(-0.000125778 0.000271308 1.50956e-24)
(-0.000147016 0.000293048 2.83773e-24)
(-0.000169392 0.00031237 8.01158e-24)
(-0.000192769 0.000329216 -5.00183e-24)
(-0.000216974 0.000343542 -1.55119e-26)
(-0.000241803 0.000355311 4.37757e-24)
(-0.000267011 0.000364494 -2.04071e-24)
(-0.000292317 0.000371065 -3.79849e-24)
(-0.000317394 0.000375002 1.06135e-23)
(-0.000341872 0.000376277 3.28193e-24)
(-0.000365328 0.00037486 1.09341e-26)
(-0.000387287 0.000370703 9.36793e-27)
(-0.000407215 0.000363741 -5.60193e-27)
(-0.000424515 0.000353887 2.42331e-24)
(-0.000438522 0.000341021 6.71424e-24)
(-0.000448496 0.000324986 2.36323e-26)
(-0.000453614 0.000305597 3.80307e-24)
(-0.000452963 0.000282619 -1.05067e-23)
(-0.000445572 0.000255784 -6.42227e-24)
(-0.00043039 0.000224758 7.00838e-27)
(-0.000407934 0.000189206 2.6999e-24)
(-0.000364601 0.000149046 4.86587e-24)
(-5.65322e-06 2.17076e-05 -3.25312e-24)
(-1.72817e-05 6.21555e-05 5.60152e-24)
(-3.00061e-05 0.00010093 -2.14959e-24)
(-4.38391e-05 0.000137894 6.1095e-24)
(-5.87634e-05 0.000172918 -3.84788e-24)
(-7.47635e-05 0.00020587 -1.81451e-24)
(-9.18154e-05 0.000236628 -6.89205e-24)
(-0.000109875 0.000265078 6.48485e-24)
(-0.000128876 0.000291114 -3.06716e-24)
(-0.000148723 0.000314645 0)
(-0.000169294 0.000335588 -5.38731e-24)
(-0.000190439 0.000353874 5.03797e-24)
(-0.00021197 0.000369442 -2.36867e-24)
(-0.000233667 0.000382245 4.40026e-24)
(-0.00025527 0.00039224 2.0468e-24)
(-0.000276477 0.000399392 0)
(-0.000296942 0.000403666 2.18437e-26)
(-0.00031627 0.000405027 0)
(-0.000334012 0.000403431 1.79711e-26)
(-0.000349663 0.000398823 5.69925e-24)
(-0.000362658 0.000391127 5.28617e-24)
(-0.000372368 0.000380238 2.43964e-24)
(-0.000378086 0.000366032 -1.34907e-23)
(-0.00037904 0.000348339 1.05741e-26)
(-0.000374369 0.000326948 0)
(-0.000363105 0.000301609 7.04175e-24)
(-0.000344234 0.000272032 -7.82134e-27)
(-0.000316528 0.000237891 8.92058e-24)
(-0.000281707 0.000198754 0)
(-0.000221385 0.000155007 -4.91263e-24)
(-6.53564e-06 2.27678e-05 1.117e-24)
(-1.96324e-05 6.52607e-05 2.28354e-24)
(-3.3509e-05 0.000106075 4.32256e-24)
(-4.81629e-05 0.000145058 -1.23221e-23)
(-6.35656e-05 0.000182063 5.81814e-24)
(-7.96871e-05 0.000216943 -5.51646e-24)
(-9.64875e-05 0.000249557 1.38952e-23)
(-0.000113907 0.000279775 -6.5424e-24)
(-0.000131862 0.000307474 6.16032e-24)
(-0.000150244 0.000332546 0)
(-0.000168913 0.000354891 0)
(-0.000187703 0.000374425 7.63156e-24)
(-0.000206409 0.000391073 5.35623e-27)
(-0.000224795 0.000404772 -4.43128e-24)
(-0.00024258 0.000415467 1.19868e-26)
(-0.000259442 0.00042311 -1.47671e-26)
(-0.000275011 0.000427654 -7.15248e-24)
(-0.000288866 0.000429052 3.32492e-24)
(-0.000300532 0.000427249 -3.078e-24)
(-0.000309475 0.000422177 2.87269e-24)
(-0.000315097 0.000413753 -1.05802e-23)
(-0.000316739 0.000401863 -9.81764e-24)
(-0.000313662 0.000386366 4.53662e-24)
(-0.000305052 0.000367075 8.36531e-24)
(-0.000290009 0.000343767 -3.86047e-24)
(-0.000267525 0.000316174 -3.53215e-24)
(-0.000236553 0.000283985 0)
(-0.000195559 0.000246896 -5.95319e-24)
(-0.000147828 0.000204035 0)
(-7.01745e-05 0.00015844 7.40218e-24)
(-7.40112e-06 2.35495e-05 -2.20813e-24)
(-2.19396e-05 6.75756e-05 6.91013e-24)
(-3.69468e-05 0.000109947 -8.7082e-24)
(-5.24028e-05 0.000150497 -2.20869e-26)
(-6.82654e-05 0.000189061 3.93012e-24)
(-8.4487e-05 0.000225477 -9.28459e-24)
(-0.000101009 0.000259587 7.00846e-24)
(-0.000117753 0.000291243 0)
(-0.000134616 0.000320306 3.12293e-24)
(-0.000151471 0.000346649 -8.75928e-24)
(-0.00016816 0.000370157 0)
(-0.000184496 0.000390727 -1.02391e-23)
(-0.000200258 0.000408271 4.7819e-24)
(-0.000215186 0.000422709 -4.48149e-24)
(-0.000228979 0.000433973 -4.13576e-24)
(-0.000241292 0.000441998 7.73674e-24)
(-0.000251729 0.000446726 0)
(-0.000259841 0.000448097 3.35776e-24)
(-0.000265129 0.000446043 6.21444e-24)
(-0.000267029 0.000440492 -1.15279e-23)
(-0.000264916 0.000431344 5.33217e-24)
(-0.000258096 0.000418474 -4.94249e-24)
(-0.000245795 0.000401727 -4.55484e-24)
(-0.000227162 0.000380907 -4.20013e-24)
(-0.000201264 0.000355775 -9.88681e-27)
(-0.000167058 0.000326049 0)
(-0.000123499 0.000291396 -6.56726e-24)
(-6.88053e-05 0.00025161 0)
(-6.63584e-06 0.000204933 0)
(8.68418e-05 0.000158086 5.00816e-24)
(-8.23127e-06 2.40609e-05 2.26199e-24)
(-2.41533e-05 6.91195e-05 -2.33719e-24)
(-4.02432e-05 0.000112573 -1.10397e-23)
(-5.64617e-05 0.000154239 1.04668e-23)
(-7.27497e-05 0.000193938 -9.91995e-24)
(-8.90398e-05 0.000231493 1.12734e-23)
(-0.000105251 0.000266728 -7.08311e-24)
(-0.000121284 0.00029948 1.33346e-23)
(-0.000137013 0.000329592 -6.26565e-24)
(-0.00015229 0.00035692 2.9291e-24)
(-0.000166935 0.000381331 2.74664e-24)
(-0.000180741 0.000402708 -5.17726e-24)
(-0.000193462 0.000420943 0)
(-0.000204816 0.000435943 4.49693e-24)
(-0.000214477 0.000447621 1.32531e-26)
(-0.000222073 0.000455902 7.81715e-24)
(-0.000227183 0.000460711 -7.26493e-24)
(-0.000229331 0.000461975 3.38083e-24)
(-0.000227995 0.000459623 -6.23115e-24)
(-0.000222579 0.00045356 1.1563e-23)
(-0.000212429 0.000443679 0)
(-0.000196818 0.000429847 0)
(-0.00017494 0.000411895 9.1462e-24)
(-0.000145908 0.000389615 4.2156e-24)
(-0.00010876 0.000362751 -7.78534e-24)
(-6.24206e-05 0.000331017 -3.60016e-24)
(-5.81061e-06 0.000294069 6.56704e-24)
(6.27033e-05 0.000251693 6.05754e-24)
(0.000140089 0.000201693 5.55669e-24)
(0.000250117 0.000152702 -5.00186e-24)
(-9.00987e-06 2.43153e-05 -1.13648e-23)
(-2.62287e-05 6.99259e-05 2.33719e-24)
(-4.33291e-05 0.000114 0)
(-6.025e-05 0.000156341 0)
(-7.6913e-05 0.000196757 -8.02679e-24)
(-9.3228e-05 0.000235053 3.80746e-24)
(-0.00010909 0.000271039 0)
(-0.000124373 0.000304536 0)
(-0.000138928 0.000335372 -3.1489e-24)
(-0.000152581 0.000363385 8.91261e-24)
(-0.00016513 0.000388426 -2.29462e-26)
(-0.000176342 0.00041036 2.6098e-24)
(-0.000185946 0.000429065 -1.9022e-26)
(-0.00019363 0.000444429 -9.04576e-24)
(-0.000199042 0.000456352 8.45641e-24)
(-0.000201783 0.000464743 2.58475e-26)
(-0.000201407 0.000469514 3.63916e-24)
(-0.000197415 0.000470582 1.35784e-23)
(-0.00018925 0.000467858 -1.88574e-23)
(-0.000176294 0.000461243 0)
(-0.000157858 0.000450616 0)
(-0.000133186 0.000435834 9.97874e-24)
(-0.000101442 0.000416717 -4.60014e-24)
(-6.1712e-05 0.000393045 4.25453e-24)
(-1.30008e-05 0.000364549 -3.91156e-24)
(4.57949e-05 0.000330939 2.15954e-23)
(0.00011577 0.000291845 -1.74734e-27)
(0.000198463 0.000246988 -9.09433e-24)
(0.000291181 0.000194315 2.50354e-26)
(0.000418451 0.000142831 1.00677e-23)
(-9.72305e-06 2.43296e-05 -6.89732e-24)
(-2.81271e-05 7.00398e-05 9.51254e-24)
(-4.61434e-05 0.000114295 0)
(-6.36873e-05 0.000156889 -8.57121e-24)
(-8.06582e-05 0.000197613 4.03241e-24)
(-9.69409e-05 0.000236259 0)
(-0.000112403 0.000272624 3.62735e-24)
(-0.000126892 0.000306513 -3.41272e-24)
(-0.000140232 0.00033774 -3.17662e-24)
(-0.000152216 0.000366127 -2.9799e-24)
(-0.000162625 0.000391512 2.79106e-24)
(-0.000171186 0.000413744 -1.0483e-23)
(-0.0001776 0.000432681 9.78871e-24)
(-0.000181528 0.000448196 4.58056e-24)
(-0.000182591 0.000460176 -8.50135e-24)
(-0.000180365 0.000468516 2.57318e-26)
(-0.000174376 0.000473115 -7.34733e-24)
(-0.000164097 0.000473878 -6.79909e-24)
(-0.000148941 0.000470706 6.30299e-24)
(-0.000128258 0.000463487 5.85402e-24)
(-0.000101332 0.000452092 1.08472e-23)
(-6.73762e-05 0.000436366 -9.99976e-24)
(-2.55296e-05 0.000416121 0)
(2.5148e-05 0.000391127 -8.51834e-24)
(8.56767e-05 0.000361109 -3.94455e-24)
(0.000157184 0.00032576 -3.58476e-24)
(0.000240772 0.000284692 9.96564e-24)
(0.000337944 0.000237597 -6.08752e-24)
(0.000446077 0.000182478 -5.52918e-24)
(0.000590911 0.000128864 5.0806e-24)
(-1.03599e-05 2.41246e-05 -2.3171e-24)
(-2.98175e-05 6.95159e-05 2.41999e-24)
(-4.86366e-05 0.000113542 -2.29799e-24)
(-6.67071e-05 0.000155985 -2.17761e-24)
(-8.39035e-05 0.000196626 4.07603e-24)
(-0.000100083 0.000235246 1.16232e-23)
(-0.000115083 0.000271627 -1.45813e-23)
(-0.000128721 0.000305561 3.41275e-24)
(-0.000140791 0.000336846 -3.20405e-24)
(-0.000151064 0.000365297 1.20753e-23)
(-0.000159269 0.000390734 -1.13039e-23)
(-0.000165115 0.000412985 5.26484e-24)
(-0.000168273 0.0004319 -1.47902e-23)
(-0.000168374 0.000447339 -9.18892e-24)
(-0.00016501 0.000459174 1.71202e-23)
(-0.000157726 0.000467289 3.99057e-24)
(-0.000146016 0.000471571 -1.48073e-23)
(-0.000129322 0.000471911 1.3734e-23)
(-0.000107028 0.0004682 -6.35632e-24)
(-7.84557e-05 0.000460317 -5.89871e-24)
(-4.28611e-05 0.000448124 2.56484e-26)
(5.69537e-07 0.000431459 0)
(5.27229e-05 0.000410125 4.65164e-24)
(0.000114561 0.000383887 0)
(0.000187125 0.00035246 7.8719e-24)
(0.000271558 0.000315528 2.63704e-26)
(0.000368965 0.000272684 0)
(0.000480848 0.000223611 2.15124e-26)
(0.000604476 0.00016623 -5.56046e-24)
(0.000767055 0.00011099 5.09578e-24)
(-1.09126e-05 2.37238e-05 0)
(-3.12758e-05 6.84169e-05 -2.41999e-24)
(-5.07689e-05 0.000111835 -6.9429e-24)
(-6.92536e-05 0.000153753 1.53388e-23)
(-8.65777e-05 0.00019394 -1.244e-23)
(-0.000102568 0.000232167 -3.88337e-24)
(-0.000117031 0.000268209 1.10262e-23)
(-0.000129751 0.000301846 -3.47719e-24)
(-0.000140488 0.000332864 3.2611e-24)
(-0.000148976 0.000361062 -6.09233e-24)
(-0.000154919 0.000386248 5.69633e-24)
(-0.00015799 0.000408243 -5.32712e-24)
(-0.000157826 0.000426882 -3.72551e-26)
(-0.000154027 0.000442013 3.94571e-27)
(-0.000146152 0.000453496 4.32673e-24)
(-0.000133713 0.000461203 0)
(-0.000116172 0.000465011 7.41358e-24)
(-9.29406e-05 0.000464801 -6.87667e-24)
(-6.33721e-05 0.000460454 0)
(-2.67594e-05 0.000451842 5.89837e-24)
(1.76694e-05 0.00043882 1.19089e-26)
(7.07536e-05 0.00042122 -5.05086e-24)
(0.000133403 0.000398842 -1.39902e-23)
(0.000206599 0.000371443 -8.60891e-24)
(0.000291396 0.000338735 0)
(0.00038895 0.000300395 -7.26967e-24)
(0.000500363 0.000255997 0)
(0.000627143 0.000205225 -6.1298e-24)
(0.000766337 0.000145818 0)
(0.000946815 8.94555e-05 -1.0115e-23)
(-1.13755e-05 2.31519e-05 0)
(-3.24838e-05 6.68097e-05 0)
(-5.25071e-05 0.000109278 0)
(-7.1278e-05 0.000150325 -8.85077e-24)
(-8.86151e-05 0.000189714 1.25245e-23)
(-0.000104313 0.000227207 -7.89644e-24)
(-0.000118145 0.000262571 3.73429e-24)
(-0.00012986 0.000295578 6.98683e-24)
(-0.000139182 0.000326005 0)
(-0.000145812 0.000353641 -6.169e-24)
(-0.000149417 0.000378284 1.14847e-23)
(-0.000149635 0.000399746 -1.34928e-26)
(-0.000146069 0.000417851 -6.5191e-27)
(-0.000138284 0.000432436 -4.64585e-24)
(-0.000125802 0.000443354 4.35155e-24)
(-0.000108102 0.000450464 0)
(-8.46145e-05 0.000453637 -1.49768e-23)
(-5.4717e-05 0.000452745 1.38682e-23)
(-1.77322e-05 0.000447663 -6.42447e-24)
(2.70766e-05 0.000438257 0)
(8.05084e-05 0.000424377 -5.48941e-24)
(0.000143427 0.000405853 5.07199e-24)
(0.000216763 0.000382481 4.66146e-24)
(0.000301514 0.000354019 4.28417e-24)
(0.000398744 0.000320175 0)
(0.000509615 0.000280623 7.31302e-24)
(0.000635209 0.000234924 0)
(0.000777046 0.000182764 0)
(0.000931882 0.000121618 5.71018e-24)
(0.0011304 6.46508e-05 1.00937e-23)
(-1.17452e-05 2.24331e-05 0)
(-3.34287e-05 6.47611e-05 0)
(-5.38264e-05 0.000105976 0)
(-7.27408e-05 0.000145841 8.9444e-24)
(-8.99596e-05 0.000184115 8.44763e-24)
(-0.000105244 0.000220555 -1.19822e-23)
(-0.000118332 0.000254923 3.76542e-24)
(-0.000128934 0.000286985 -7.02403e-24)
(-0.000136741 0.000316513 6.61053e-24)
(-0.000141413 0.000343288 -1.24128e-23)
(-0.000142582 0.000367101 1.84074e-26)
(-0.000139849 0.000387756 1.77636e-26)
(-0.000132778 0.000405071 5.07025e-24)
(-0.000120898 0.000418877 0)
(-0.000103694 0.000429016 -1.30764e-23)
(-8.0609e-05 0.000435342 8.11653e-24)
(-5.10388e-05 0.00043772 7.50117e-24)
(-1.43275e-05 0.000436018 -6.98973e-24)
(3.02341e-05 0.000430104 6.469e-24)
(8.34128e-05 0.000419843 -5.96471e-24)
(0.000146035 0.000405084 1.10285e-23)
(0.000218987 0.000385655 -5.09234e-24)
(0.000303219 0.000361355 0)
(0.000399739 0.000331944 1.72854e-23)
(0.000509617 0.000297132 -1.59396e-23)
(0.000634006 0.000256594 6.67601e-27)
(0.000773953 0.00020988 -6.72501e-24)
(0.000931005 0.000156681 -6.16239e-24)
(0.00110155 9.41341e-05 -5.63495e-24)
(0.00131823 3.71198e-05 0)
(-1.20202e-05 2.15909e-05 0)
(-3.41023e-05 6.23362e-05 0)
(-5.47084e-05 0.000102031 4.74242e-24)
(-7.36096e-05 0.000140437 -8.99718e-24)
(-9.05619e-05 0.00017731 -8.53271e-24)
(-0.000105292 0.000212406 1.20625e-23)
(-0.000117499 0.000245484 -3.80653e-24)
(-0.00012686 0.000276307 -7.1177e-24)
(-0.000133023 0.000304644 3.35227e-24)
(-0.000135612 0.000330273 0)
(-0.000134219 0.000352981 1.16707e-23)
(-0.000128406 0.000372569 -1.09142e-23)
(-0.000117699 0.000388848 0)
(-0.000101584 0.000401647 0)
(-7.95124e-05 0.000410801 -4.40954e-24)
(-5.08875e-05 0.000416164 -8.18528e-24)
(-1.50687e-05 0.000417595 7.58822e-24)
(2.86344e-05 0.000414961 6.98982e-24)
(8.09644e-05 0.00040813 -1.29698e-23)
(0.000142718 0.000396964 -6.00799e-24)
(0.000214748 0.000381316 5.54754e-24)
(0.000297964 0.000361018 -5.10583e-24)
(0.00039333 0.000335875 4.71271e-24)
(0.000501862 0.000305653 0)
(0.000624622 0.000270069 -6.63259e-27)
(0.000762736 0.000228807 2.20139e-23)
(0.000917223 0.000181401 -6.73726e-24)
(0.00108964 0.000127555 0)
(0.00127592 6.39964e-05 1.13237e-23)
(0.00151086 7.5543e-06 -1.01098e-23)
(-1.22004e-05 2.06472e-05 0)
(-3.44997e-05 5.95966e-05 -1.0166e-23)
(-5.51386e-05 9.75417e-05 9.60529e-24)
(-7.38567e-05 0.000134246 4.58248e-24)
(-9.03768e-05 0.000169464 -8.63235e-24)
(-0.00010439 0.000202952 -4.0381e-24)
(-0.000115558 0.000234472 1.91056e-23)
(-0.000123519 0.000263786 -1.79689e-23)
(-0.000127882 0.000290664 1.01311e-23)
(-0.00012823 0.000314883 6.33013e-24)
(-0.000124115 0.00033623 5.91377e-24)
(-0.000115059 0.000354504 0)
(-0.000100545 0.000369517 -1.0225e-23)
(-8.00218e-05 0.000381095 9.53621e-24)
(-5.28973e-05 0.000389075 1.32474e-23)
(-1.85377e-05 0.000393307 -8.2725e-24)
(2.3736e-05 0.000393654 4.39001e-26)
(7.46502e-05 0.000389982 -7.03819e-24)
(0.000134981 0.000382161 6.49258e-24)
(0.000205557 0.000370058 6.00823e-24)
(0.000287255 0.000353533 2.22659e-26)
(0.000381004 0.000332425 0)
(0.000487781 0.000306549 9.46482e-24)
(0.000608595 0.000275683 0)
(0.000744483 0.00023956 8.00904e-24)
(0.000896552 0.00019787 1.57321e-26)
(0.00106576 0.000150137 6.73827e-24)
(0.00125365 9.60825e-05 -8.01323e-27)
(0.00145567 3.19516e-05 -2.25752e-23)
(0.00170884 -2.32391e-05 1.52266e-23)
(-1.2286e-05 1.96216e-05 0)
(-3.46174e-05 5.65979e-05 -1.02743e-23)
(-5.5105e-05 9.25988e-05 2.43513e-23)
(-7.34562e-05 0.000127391 -4.59759e-24)
(-8.93603e-05 0.000160731 0)
(-0.000102472 0.000192379 4.03531e-26)
(-0.000112416 0.000222101 1.54296e-23)
(-0.000118789 0.000249663 -1.45182e-23)
(-0.000121162 0.000274839 -6.74809e-24)
(-0.000119076 0.000297407 6.40131e-24)
(-0.000112042 0.000317159 -2.37383e-23)
(-9.95388e-05 0.000333897 2.7714e-23)
(-8.10075e-05 0.000347434 -2.06303e-23)
(-5.5855e-05 0.000357599 4.79317e-24)
(-2.3448e-05 0.000364233 -8.89538e-24)
(1.68877e-05 0.00036719 8.26114e-24)
(6.58703e-05 0.000366335 7.71109e-24)
(0.000124263 0.00036154 -7.07475e-24)
(0.000192877 0.000352681 6.5259e-24)
(0.000272569 0.000339635 -6.04183e-24)
(0.000364241 0.00032227 1.80063e-26)
(0.000468839 0.000300439 0)
(0.000587335 0.000273972 -9.46265e-24)
(0.000720722 0.000242669 1.94827e-26)
(0.000870014 0.000206274 1.66415e-26)
(0.00103627 0.000164495 7.36999e-24)
(0.00122035 0.000116842 -6.75814e-24)
(0.00142378 6.30662e-05 1.23827e-23)
(0.00164142 -1.14904e-06 1.13434e-23)
(0.00191262 -5.43472e-05 0)
(-1.22778e-05 1.85308e-05 1.00826e-23)
(-3.44524e-05 5.33889e-05 -2.61206e-24)
(-5.45952e-05 8.72825e-05 0)
(-7.23817e-05 0.000119983 -4.6372e-24)
(-8.7467e-05 0.000151253 0)
(-9.94697e-05 0.00018086 -4.12587e-24)
(-0.000107976 0.000208574 0)
(-0.000112543 0.000234171 -1.09422e-23)
(-0.0001127 0.000257428 -6.78871e-24)
(-0.000107949 0.000278134 1.92871e-23)
(-9.7757e-05 0.000296085 5.96357e-24)
(-8.15577e-05 0.00031109 -1.67091e-23)
(-5.87517e-05 0.000322969 3.40189e-26)
(-2.87017e-05 0.000331556 2.4138e-23)
(9.26768e-06 0.000336701 -3.03008e-26)
(5.58724e-05 0.000338263 -1.66729e-23)
(0.00011187 0.000336116 -7.67799e-24)
(0.000178063 0.000330142 0)
(0.000255294 0.000320228 6.566e-24)
(0.000344448 0.000306261 6.06858e-24)
(0.00044645 0.000288126 -1.12288e-23)
(0.000562244 0.000265695 0)
(0.000692795 0.000238821 -9.52136e-24)
(0.000839077 0.000207321 -8.72894e-24)
(0.00100205 0.000170966 -8.02402e-24)
(0.00118269 0.000129479 -7.34985e-24)
(0.00138175 8.23626e-05 6.76798e-24)
(0.00160067 2.93944e-05 -1.23766e-23)
(0.0018337 -3.43722e-05 1.33074e-26)
(0.00212245 -8.47925e-05 1.00585e-23)
(-1.21757e-05 1.73886e-05 0)
(-3.40001e-05 5.00107e-05 -2.80936e-26)
(-5.35949e-05 8.16619e-05 -1.49528e-23)
(-7.06037e-05 0.000112121 4.69491e-24)
(-8.46475e-05 0.000141159 0)
(-9.53087e-05 0.000168552 2.09383e-23)
(-0.000102135 0.000194079 -3.54513e-23)
(-0.000104644 0.000217527 7.40901e-24)
(-0.000102325 0.000238683 -1.38194e-23)
(-9.46369e-05 0.000257345 6.5197e-24)
(-8.10027e-05 0.000273321 0)
(-6.0814e-05 0.000286428 0)
(-3.34267e-05 0.000296497 -5.25846e-24)
(1.83979e-06 0.000303374 4.88517e-24)
(4.57043e-05 0.000306917 0)
(9.89246e-05 0.000306999 8.34337e-24)
(0.000162299 0.000303505 0)
(0.000236665 0.00029633 1.43364e-23)
(0.000322899 0.000285377 -6.62948e-24)
(0.000421911 0.000270549 0)
(0.000534629 0.000251754 -5.66439e-24)
(0.000662001 0.000228887 0)
(0.000804974 0.000201826 1.90688e-23)
(0.000964476 0.000170418 8.77814e-24)
(0.00114139 0.000134458 8.06043e-24)
(0.00133657 9.36938e-05 0)
(0.00155061 4.76125e-05 1.51756e-26)
(0.00178481 -3.98063e-06 6.20634e-24)
(0.00203281 -6.6725e-05 -1.13449e-23)
(0.00233821 -0.000113569 -1.00527e-23)
(-1.19788e-05 1.62055e-05 1.03031e-23)
(-3.32534e-05 4.6496e-05 -2.69759e-24)
(-5.20855e-05 7.57941e-05 -5.3684e-26)
(-6.80872e-05 0.000103888 1.42413e-23)
(-8.08459e-05 0.000130559 -1.35087e-23)
(-8.99079e-05 0.000155594 -4.20887e-24)
(-9.47826e-05 0.000178786 -3.93043e-26)
(-9.4949e-05 0.000199933 -3.59258e-26)
(-8.9855e-05 0.000218837 0)
(-7.89161e-05 0.000235309 -1.3035e-23)
(-6.15132e-05 0.000249169 1.82507e-23)
(-3.6994e-05 0.000260248 -1.13742e-23)
(-4.67011e-06 0.000268393 1.05601e-23)
(3.6183e-05 0.000273462 -4.88557e-24)
(8.63273e-05 0.00027533 0)
(0.000146563 0.000273884 8.457e-24)
(0.000217726 0.000269026 -4.13021e-26)
(0.000300691 0.000260668 -7.17886e-24)
(0.00039636 0.000248732 6.63982e-24)
(0.000505655 0.000233148 -6.14607e-24)
(0.000629513 0.000213845 2.26031e-23)
(0.000768871 0.000190748 -2.08084e-23)
(0.000924636 0.000163766 9.58413e-24)
(0.00109767 0.000132781 -3.51562e-23)
(0.00128873 9.76204e-05 -1.61135e-23)
(0.00149851 5.80558e-05 2.14545e-26)
(0.00172739 1.35559e-05 1.35879e-23)
(0.00197646 -3.60631e-05 1.8612e-23)
(0.00223877 -9.71787e-05 -5.68381e-24)
(0.00255936 -0.000139688 0)
(-1.16847e-05 1.49892e-05 -1.04171e-23)
(-3.2201e-05 4.28697e-05 -5.8956e-26)
(-5.00426e-05 6.97242e-05 5.05912e-24)
(-6.47903e-05 9.53525e-05 4.77167e-24)
(-7.59983e-05 0.000119547 -2.27033e-23)
(-8.31772e-05 0.000142109 3.41876e-23)
(-8.57991e-05 0.000162848 -2.40942e-23)
(-8.33037e-05 0.000181574 3.76644e-23)
(-7.50983e-05 0.000198109 -1.41289e-23)
(-6.05555e-05 0.000212278 -1.97742e-23)
(-3.90142e-05 0.000223918 1.23448e-23)
(-9.77807e-06 0.000232879 4.86066e-26)
(2.7885e-05 0.000239024 5.36869e-24)
(7.47433e-05 0.00024223 0)
(0.000131601 0.00024239 9.14514e-24)
(0.0001993 0.000239411 -8.44727e-24)
(0.000278712 0.000233214 1.56998e-23)
(0.000370741 0.000223734 -7.22768e-24)
(0.000476306 0.00021092 -6.67423e-24)
(0.000596344 0.000194726 -6.15524e-24)
(0.000731786 0.000175111 -1.69656e-23)
(0.000883539 0.000152033 2.08827e-23)
(0.00105245 0.00012544 9.58224e-24)
(0.00123927 9.52536e-05 -6.23929e-26)
(0.00144461 6.13414e-05 -2.62734e-26)
(0.00166895 2.35031e-05 0)
(0.00191235 -1.88178e-05 2.86129e-26)
(0.00217558 -6.58373e-05 -2.48338e-23)
(0.00245128 -0.000124692 5.57373e-24)
(0.00278483 -0.000162238 -1.02376e-23)
(-1.1289e-05 1.37445e-05 1.04287e-26)
(-3.08271e-05 3.91494e-05 1.62618e-23)
(-4.74348e-05 6.34863e-05 0)