/*--------------------------------*- C++ -*----------------------------------*\
| =========                 |                                                 |
| \\      /  F ield         | foam-extend: Open Source CFD                    |
|  \\    /   O peration     | Version:     4.0                                |
|   \\  /    A nd           | Web:         http://www.foam-extend.org         |
|    \\/     M anipulation  |                                                 |
\*---------------------------------------------------------------------------*/
FoamFile
{
    version     2.0;
    format      ascii;
    class       surfaceScalarField;
    location    "5";
    object      phi;
}
// * * * * * * * * * * * * * * * * * * * * * * * * * * * * * * * * * * * * * //

dimensions      [0 3 -1 0 0 0 0];

internalField   nonuniform List<scalar> 
71520
(
1.03971e-10
-1.01884e-10
-2.08655e-12
5.1673e-10
-4.05779e-10
-6.98012e-12
1.37291e-09
-8.43207e-10
-1.29686e-11
2.82941e-09
-1.43633e-09
-2.01689e-11
5.06599e-09
-2.2079e-09
-2.8686e-11
8.28501e-09
-3.18041e-09
-3.86024e-11
1.271e-08
-4.37503e-09
-4.9967e-11
1.8583e-08
-5.81025e-09
-6.27812e-11
2.61603e-08
-7.50032e-09
-7.69831e-11
3.57062e-08
-9.45346e-09
-9.24321e-11
4.74851e-08
-1.167e-08
-1.08893e-10
6.17516e-08
-1.41405e-08
-1.26025e-10
7.87394e-08
-1.68444e-08
-1.43371e-10
9.86488e-08
-1.9749e-08
-1.60364e-10
1.21635e-07
-2.28097e-08
-1.76338e-10
1.47796e-07
-2.59708e-08
-1.90553e-10
1.77167e-07
-2.91689e-08
-2.02243e-10
2.09715e-07
-3.23367e-08
-2.10669e-10
2.45338e-07
-3.5408e-08
-2.15191e-10
2.83878e-07
-3.83246e-08
-2.15348e-10
3.25134e-07
-4.1045e-08
-2.10926e-10
3.68883e-07
-4.35475e-08
-2.01994e-10
4.14905e-07
-4.58325e-08
-1.88927e-10
4.62999e-07
-4.7922e-08
-1.7238e-10
5.13008e-07
-4.98561e-08
-1.53227e-10
5.64827e-07
-5.16861e-08
-1.32476e-10
6.18406e-07
-5.34675e-08
-1.11165e-10
6.7375e-07
-5.5254e-08
-9.02626e-11
7.30915e-07
-5.70943e-08
-7.06061e-11
-5.90404e-08
7.90008e-07
-5.27931e-11
1.04851e-10
-2.06736e-10
5.20148e-10
-8.21075e-10
1.38048e-09
-1.70354e-09
2.8427e-09
-2.89855e-09
5.08643e-09
-4.45164e-09
8.31385e-09
-6.40783e-09
1.27483e-08
-8.80946e-09
1.86315e-08
-1.16935e-08
2.62193e-08
-1.50882e-08
3.57757e-08
-1.90098e-08
4.75644e-08
-2.34587e-08
6.18395e-08
-2.84156e-08
7.8834e-08
-3.38389e-08
9.87476e-08
-3.96626e-08
1.21734e-07
-4.57965e-08
1.47893e-07
-5.2129e-08
1.77256e-07
-5.85322e-08
2.0979e-07
-6.4871e-08
2.45395e-07
-7.10123e-08
2.8391e-07
-7.68401e-08
3.25137e-07
-8.22716e-08
3.68852e-07
-8.7263e-08
4.14835e-07
-9.18158e-08
4.62888e-07
-9.59749e-08
5.12854e-07
-9.98213e-08
5.64626e-07
-1.03459e-07
6.18157e-07
-1.06998e-07
6.73452e-07
-1.10549e-07
7.30567e-07
-1.14209e-07
-1.18082e-07
7.89609e-07
1.06603e-10
-3.1334e-10
5.26944e-10
-1.24142e-09
1.39555e-09
-2.57215e-09
2.86912e-09
-4.37211e-09
5.12705e-09
-6.70956e-09
8.37116e-09
-9.65195e-09
1.28243e-08
-1.32626e-08
1.87277e-08
-1.75968e-08
2.63364e-08
-2.26969e-08
3.59133e-08
-2.85868e-08
4.77214e-08
-3.52668e-08
6.20135e-08
-4.27076e-08
7.90211e-08
-5.08465e-08
9.89426e-08
-5.9584e-08
1.21931e-07
-6.87847e-08
1.48082e-07
-7.82804e-08
1.77429e-07
-8.78795e-08
2.09937e-07
-9.73786e-08
2.45503e-07
-1.06578e-07
2.8397e-07
-1.15307e-07
3.25137e-07
-1.23439e-07
3.68785e-07
-1.30911e-07
4.14692e-07
-1.37723e-07
4.62663e-07
-1.43945e-07
5.1254e-07
-1.49699e-07
5.64221e-07
-1.55139e-07
6.17657e-07
-1.60435e-07
6.72856e-07
-1.65748e-07
7.29871e-07
-1.71225e-07
-1.77022e-07
7.88812e-07
1.09216e-10
-4.22556e-10
5.37078e-10
-1.66928e-09
1.41802e-09
-3.45309e-09
2.9085e-09
-5.8626e-09
5.18758e-09
-8.98864e-09
8.45655e-09
-1.29209e-08
1.29376e-08
-1.77437e-08
1.88709e-08
-2.35302e-08
2.65106e-08
-3.03365e-08
3.61182e-08
-3.81944e-08
4.7955e-08
-4.71035e-08
6.2272e-08
-5.70247e-08
7.92989e-08
-6.78734e-08
9.92317e-08
-7.95169e-08
1.22221e-07
-9.17742e-08
1.48362e-07
-1.04421e-07
1.77684e-07
-1.17202e-07
2.10151e-07
-1.29845e-07
2.4566e-07
-1.42087e-07
2.84053e-07
-1.537e-07
3.25133e-07
-1.64519e-07
3.68678e-07
-1.74456e-07
4.14472e-07
-1.83517e-07
4.62319e-07
-1.91792e-07
5.12065e-07
-1.99445e-07
5.63609e-07
-2.06683e-07
6.16904e-07
-2.1373e-07
6.71957e-07
-2.20801e-07
7.28825e-07
-2.28093e-07
-2.3581e-07
7.87613e-07
1.12674e-10
-5.3523e-10
5.50491e-10
-2.10709e-09
1.44774e-09
-4.35034e-09
2.96061e-09
-7.37546e-09
5.26766e-09
-1.12957e-08
8.5695e-09
-1.62228e-08
1.30874e-08
-2.22615e-08
1.90603e-08
-2.95031e-08
2.67408e-08
-3.8017e-08
3.63887e-08
-4.78423e-08
4.82632e-08
-5.8978e-08
6.26129e-08
-7.13744e-08
7.96649e-08
-8.49254e-08
9.96124e-08
-9.94644e-08
1.22603e-07
-1.14765e-07
1.48729e-07
-1.30547e-07
1.78017e-07
-1.4649e-07
2.10427e-07
-1.62256e-07
2.45859e-07
-1.77519e-07
2.84155e-07
-1.91996e-07
3.25117e-07
-2.05481e-07
3.68527e-07
-2.17866e-07
4.14169e-07
-2.29159e-07
4.61852e-07
-2.39475e-07
5.11424e-07
-2.49017e-07
5.62786e-07
-2.58045e-07
6.15893e-07
-2.66837e-07
6.70754e-07
-2.75662e-07
7.27426e-07
-2.84764e-07
-2.94397e-07
7.86012e-07
1.16959e-10
-6.52189e-10
5.67108e-10
-2.55724e-09
1.48457e-09
-5.2678e-09
3.02515e-09
-8.91604e-09
5.36681e-09
-1.36374e-08
8.70931e-09
-1.95653e-08
1.32727e-08
-2.68249e-08
1.92945e-08
-3.55249e-08
2.70255e-08
-4.5748e-08
3.67231e-08
-5.75399e-08
4.86439e-08
-7.08989e-08
6.30338e-08
-8.57642e-08
8.01163e-08
-1.02008e-07
1.00081e-07
-1.19429e-07
1.23072e-07
-1.37756e-07
1.49177e-07
-1.56651e-07
1.7842e-07
-1.75733e-07
2.10761e-07
-1.94597e-07
2.46096e-07
-2.12854e-07
2.8427e-07
-2.30169e-07
3.25084e-07
-2.46295e-07
3.68325e-07
-2.61107e-07
4.13778e-07
-2.74613e-07
4.61256e-07
-2.86953e-07
5.10611e-07
-2.98372e-07
5.61746e-07
-3.0918e-07
6.14621e-07
-3.19711e-07
6.69243e-07
-3.30285e-07
7.2567e-07
-3.41192e-07
-3.52732e-07
7.84006e-07
1.22048e-10
-7.74237e-10
5.86838e-10
-3.02203e-09
1.52828e-09
-6.20925e-09
3.10175e-09
-1.04895e-08
5.48447e-09
-1.60201e-08
8.87517e-09
-2.2956e-08
1.34925e-08
-3.14422e-08
1.95722e-08
-4.16046e-08
2.73627e-08
-5.35385e-08
3.7119e-08
-6.72962e-08
4.90944e-08
-8.28743e-08
6.35313e-08
-1.00201e-07
8.06492e-08
-1.19126e-07
1.00633e-07
-1.39413e-07
1.23622e-07
-1.60745e-07
1.497e-07
-1.82729e-07
1.78889e-07
-2.04921e-07
2.11145e-07
-2.26853e-07
2.46365e-07
-2.48074e-07
2.8439e-07
-2.68195e-07
3.25028e-07
-2.86933e-07
3.68065e-07
-3.04144e-07
4.13292e-07
-3.1984e-07
4.60525e-07
-3.34186e-07
5.09621e-07
-3.47467e-07
5.60486e-07
-3.60046e-07
6.13082e-07
-3.72307e-07
6.6742e-07
-3.84623e-07
7.23557e-07
-3.97329e-07
-4.10769e-07
7.81594e-07
1.27913e-10
-9.0215e-10
6.09574e-10
-3.50369e-09
1.57865e-09
-7.17832e-09
3.18998e-09
-1.21008e-08
5.61996e-09
-1.84501e-08
9.06608e-09
-2.64021e-08
1.37454e-08
-3.61215e-08
1.98915e-08
-4.77507e-08
2.77503e-08
-6.13973e-08
3.75736e-08
-7.71195e-08
4.96113e-08
-9.4912e-08
6.41013e-08
-1.14691e-07
8.12581e-08
-1.36283e-07
1.01262e-07
-1.59417e-07
1.24247e-07
-1.8373e-07
1.50293e-07
-2.08775e-07
1.79417e-07
-2.34045e-07
2.11574e-07
-2.5901e-07
2.46657e-07
-2.83157e-07
2.8451e-07
-3.06048e-07
3.24941e-07
-3.27364e-07
3.6774e-07
-3.46943e-07
4.12704e-07
-3.64803e-07
4.59652e-07
-3.81134e-07
5.08446e-07
-3.96261e-07
5.58999e-07
-4.10598e-07
6.11274e-07
-4.24582e-07
6.65284e-07
-4.38632e-07
7.21085e-07
-4.5313e-07
-4.68459e-07
7.78775e-07
1.34524e-10
-1.03667e-09
6.35195e-10
-4.00437e-09
1.63539e-09
-8.17852e-09
3.28935e-09
-1.37548e-08
5.7725e-09
-2.09332e-08
9.28095e-09
-2.99105e-08
1.40298e-08
-4.08704e-08
2.02505e-08
-5.39714e-08
2.81857e-08
-6.93325e-08
3.80838e-08
-8.70176e-08
5.01905e-08
-1.07019e-07
6.47386e-08
-1.29239e-07
8.19376e-08
-1.53482e-07
1.01962e-07
-1.79442e-07
1.24941e-07
-2.06709e-07
1.50948e-07
-2.34783e-07
1.79997e-07
-2.63094e-07
2.12038e-07
-2.91051e-07
2.46965e-07
-3.18083e-07
2.8462e-07
-3.43704e-07
3.24814e-07
-3.67558e-07
3.67342e-07
-3.89471e-07
4.12004e-07
-4.09466e-07
4.58628e-07
-4.27757e-07
5.07081e-07
-4.44714e-07
5.57279e-07
-4.60797e-07
6.09191e-07
-4.76494e-07
6.6283e-07
-4.92271e-07
7.18252e-07
-5.08552e-07
-5.25759e-07
7.75552e-07
1.41846e-10
-1.17852e-09
6.63565e-10
-4.52608e-09
1.6982e-09
-9.21315e-09
3.39932e-09
-1.54559e-08
5.94125e-09
-2.34751e-08
9.51852e-09
-3.34878e-08
1.43442e-08
-4.56961e-08
2.06468e-08
-6.0274e-08
2.8666e-08
-7.73516e-08
3.8646e-08
-9.69976e-08
5.08277e-08
-1.192e-07
6.54385e-08
-1.4385e-07
8.26823e-08
-1.70725e-07
1.02728e-07
-1.99487e-07
1.25697e-07
-2.29679e-07
1.51659e-07
-2.60745e-07
1.80621e-07
-2.92056e-07
2.12531e-07
-3.2296e-07
2.47279e-07
-3.52831e-07
2.8471e-07
-3.81135e-07
3.24637e-07
-4.07485e-07
3.6686e-07
-4.31694e-07
4.11184e-07
-4.53791e-07
4.57445e-07
-4.74018e-07
5.05515e-07
-4.92785e-07
5.55319e-07
-5.10601e-07
6.06828e-07
-5.28003e-07
6.60056e-07
-5.45499e-07
7.15059e-07
-5.63555e-07
-5.82627e-07
7.71926e-07
1.49843e-10
-1.32836e-09
6.94539e-10
-5.07078e-09
1.76676e-09
-1.02854e-08
3.5193e-09
-1.72084e-08
6.12527e-09
-2.60811e-08
9.77746e-09
-3.714e-08
1.46866e-08
-5.06052e-08
2.10782e-08
-6.66656e-08
2.91882e-08
-8.54616e-08
3.92564e-08
-1.07066e-07
5.15185e-08
-1.31462e-07
6.6196e-08
-1.58528e-07
8.34863e-08
-1.88016e-07
1.03552e-07
-2.19552e-07
1.26507e-07
-2.52635e-07
1.52416e-07
-2.86653e-07
1.81279e-07
-3.2092e-07
2.13041e-07
-3.54722e-07
2.47589e-07
-3.8738e-07
2.8477e-07
-4.18316e-07
3.24399e-07
-4.47115e-07
3.66283e-07
-4.73577e-07
4.10233e-07
-4.97741e-07
4.56092e-07
-5.19877e-07
5.03741e-07
-5.40434e-07
5.53111e-07
-5.59971e-07
6.04178e-07
-5.79069e-07
6.56957e-07
-5.98279e-07
7.11504e-07
-6.18102e-07
-6.39022e-07
7.67899e-07
1.58474e-10
-1.48684e-09
7.27959e-10
-5.64026e-09
1.84071e-09
-1.13981e-08
3.64866e-09
-1.90164e-08
6.32359e-09
-2.8756e-08
1.00564e-08
-4.08728e-08
1.50551e-08
-5.56039e-08
2.15421e-08
-7.31526e-08
2.97492e-08
-9.36687e-08
3.99113e-08
-1.17228e-07
5.22583e-08
-1.43809e-07
6.70055e-08
-1.73275e-07
8.43434e-08
-2.05354e-07
1.04427e-07
-2.39635e-07
1.27364e-07
-2.75572e-07
1.5321e-07
-3.12499e-07
1.81962e-07
-3.49671e-07
2.13557e-07
-3.86317e-07
2.47884e-07
-4.21706e-07
2.84788e-07
-4.5522e-07
3.24089e-07
-4.86416e-07
3.65599e-07
-5.15087e-07
4.09138e-07
-5.4128e-07
4.54557e-07
-5.65295e-07
5.01746e-07
-5.87624e-07
5.50644e-07
-6.08868e-07
6.01232e-07
-6.29657e-07
6.53527e-07
-6.50575e-07
7.07583e-07
-6.72158e-07
-6.94909e-07
7.6347e-07
1.67699e-10
-1.65454e-09
7.63661e-10
-6.23623e-09
1.91967e-09
-1.25541e-08
3.78673e-09
-2.08835e-08
6.53515e-09
-3.15045e-08
1.03537e-08
-4.46913e-08
1.54477e-08
-6.06979e-08
2.20358e-08
-7.97408e-08
3.03454e-08
-1.01978e-07
4.06063e-08
-1.27489e-07
5.30421e-08
-1.56245e-07
6.78612e-08
-1.88094e-07
8.52467e-08
-2.22739e-07
1.05345e-07
-2.59734e-07
1.28258e-07
-2.98485e-07
1.54032e-07
-3.38273e-07
1.82658e-07
-3.78297e-07
2.14069e-07
-4.17729e-07
2.48152e-07
-4.55789e-07
2.84751e-07
-4.91819e-07
3.23693e-07
-5.25358e-07
3.64794e-07
-5.56188e-07
4.07885e-07
-5.84371e-07
4.52825e-07
-6.10235e-07
4.99515e-07
-6.34314e-07
5.47902e-07
-6.57255e-07
5.97974e-07
-6.79729e-07
6.49751e-07
-7.02352e-07
7.03284e-07
-7.2569e-07
-7.50254e-07
7.58629e-07
1.77472e-10
-1.83201e-09
8.0147e-10
-6.86022e-09
2.00325e-09
-1.37559e-08
3.93282e-09
-2.2813e-08
6.75885e-09
-3.43305e-08
1.06678e-08
-4.86003e-08
1.58621e-08
-6.58922e-08
2.25564e-08
-8.64351e-08
3.09734e-08
-1.10395e-07
4.13371e-08
-1.37853e-07
5.38645e-08
-1.68773e-07
6.87568e-08
-2.02986e-07
8.61888e-08
-2.40171e-07
1.06299e-07
-2.79844e-07
1.2918e-07
-3.21366e-07
1.54871e-07
-3.63965e-07
1.83356e-07
-4.06782e-07
2.14564e-07
-4.48937e-07
2.48378e-07
-4.89602e-07
2.84646e-07
-5.28087e-07
3.23196e-07
-5.63908e-07
3.63854e-07
-5.96845e-07
4.06458e-07
-6.26975e-07
4.50879e-07
-6.54656e-07
4.97029e-07
-6.80464e-07
5.44865e-07
-7.05092e-07
5.94383e-07
-7.29247e-07
6.45607e-07
-7.53575e-07
6.98582e-07
-7.78665e-07
-8.05024e-07
7.53352e-07
1.87746e-10
-2.01975e-09
8.41199e-10
-7.51368e-09
2.09104e-09
-1.50058e-08
4.08616e-09
-2.48082e-08
6.99352e-09
-3.72379e-08
1.09971e-08
-5.26039e-08
1.62961e-08
-7.11911e-08
2.31009e-08
-9.324e-08
3.16293e-08
-1.18924e-07
4.2099e-08
-1.48322e-07
5.472e-08
-1.81394e-07
6.96855e-08
-2.17952e-07
8.7162e-08
-2.57648e-07
1.07279e-07
-2.99961e-07
1.3012e-07
-3.44207e-07
1.55716e-07
-3.89561e-07
1.84045e-07
-4.35111e-07
2.1503e-07
-4.79922e-07
2.48551e-07
-5.23124e-07
2.84458e-07
-5.63994e-07
3.22584e-07
-6.02034e-07
3.62761e-07
-6.37023e-07
4.04839e-07
-6.69053e-07
4.487e-07
-6.98516e-07
4.94266e-07
-7.2603e-07
5.41508e-07
-7.52333e-07
5.90429e-07
-7.78169e-07
6.41058e-07
-8.04204e-07
6.93437e-07
-8.31044e-07
-8.59179e-07
7.47592e-07
1.98474e-10
-2.21823e-09
8.82656e-10
-8.19786e-09
2.1826e-09
-1.63057e-08
4.24598e-09
-2.68715e-08
7.23791e-09
-4.02298e-08
1.13398e-08
-5.67058e-08
1.67471e-08
-7.65984e-08
2.36662e-08
-1.00159e-07
3.2309e-08
-1.27567e-07
4.2887e-08
-1.589e-07
5.56025e-08
-1.94109e-07
7.06404e-08
-2.3299e-07
8.81582e-08
-2.75165e-07
1.08276e-07
-3.20079e-07
1.31068e-07
-3.66999e-07
1.56556e-07
-4.1505e-07
1.84711e-07
-4.63265e-07
2.15451e-07
-5.10662e-07
2.48655e-07
-5.56327e-07
2.84171e-07
-5.99511e-07
3.2184e-07
-6.39702e-07
3.615e-07
-6.76683e-07
4.03011e-07
-7.10564e-07
4.46266e-07
-7.41771e-07
4.91201e-07
-7.70966e-07
5.37799e-07
-7.98931e-07
5.86073e-07
-8.26443e-07
6.36055e-07
-8.54186e-07
6.87785e-07
-8.82774e-07
-9.12668e-07
7.41274e-07
2.09602e-10
-2.42783e-09
9.25636e-10
-8.91389e-09
2.27746e-09
-1.76575e-08
4.41146e-09
-2.90055e-08
7.49074e-09
-4.33091e-08
1.16939e-08
-6.09089e-08
1.72128e-08
-8.21173e-08
2.42488e-08
-1.07195e-07
3.30084e-08
-1.36326e-07
4.36959e-08
-1.69588e-07
5.65058e-08
-2.06919e-07
7.16142e-08
-2.48098e-07
8.91688e-08
-2.9272e-07
1.0928e-07
-3.4019e-07
1.32012e-07
-3.89731e-07
1.57379e-07
-4.40417e-07
1.85343e-07
-4.91229e-07
2.15816e-07
-5.41136e-07
2.48676e-07
-5.89186e-07
2.83772e-07
-6.34608e-07
3.20949e-07
-6.76878e-07
3.60053e-07
-7.15787e-07
4.00954e-07
-7.51465e-07
4.43556e-07
-7.84373e-07
4.87809e-07
-8.15219e-07
5.33705e-07
-8.44827e-07
5.8127e-07
-8.74008e-07
6.3054e-07
-9.03455e-07
6.81551e-07
-9.33785e-07
-9.6542e-07
7.34303e-07
2.21079e-10
-2.64891e-09
9.69929e-10
-9.66274e-09
2.37515e-09
-1.90627e-08
4.58174e-09
-3.12121e-08
7.75068e-09
-4.6478e-08
1.20576e-08
-6.52158e-08
1.76903e-08
-8.775e-08
2.48454e-08
-1.1435e-07
3.37231e-08
-1.45204e-07
4.45204e-08
-1.80385e-07
5.74235e-08
-2.19822e-07
7.25993e-08
-2.63274e-07
9.01854e-08
-3.10306e-07
1.10282e-07
-3.60286e-07
1.32943e-07
-4.12392e-07
1.58173e-07
-4.65647e-07
1.85927e-07
-5.18982e-07
2.16112e-07
-5.7132e-07
2.48601e-07
-6.21676e-07
2.83247e-07
-6.69253e-07
3.19896e-07
-7.13528e-07
3.58406e-07
-7.54297e-07
3.98653e-07
-7.91713e-07
4.40553e-07
-8.26273e-07
4.84067e-07
-8.58733e-07
5.29198e-07
-8.89959e-07
5.75981e-07
-9.2079e-07
6.24456e-07
-9.51931e-07
6.74659e-07
-9.83988e-07
-1.01734e-06
7.26582e-07
2.32849e-10
-2.88176e-09
1.01532e-09
-1.04452e-08
2.47518e-09
-2.05226e-08
4.75596e-09
-3.34929e-08
8.01634e-09
-4.97384e-08
1.24288e-08
-6.96283e-08
1.8177e-08
-9.34983e-08
2.54524e-08
-1.21626e-07
3.44486e-08
-1.542e-07
4.53549e-08
-1.91291e-07
5.83491e-08
-2.32816e-07
7.3588e-08
-2.78513e-07
9.1199e-08
-3.27917e-07
1.11271e-07
-3.80358e-07
1.33849e-07
-4.34969e-07
1.58927e-07
-4.90725e-07
1.86451e-07
-5.46507e-07
2.16324e-07
-6.01193e-07
2.48416e-07
-6.53768e-07
2.82581e-07
-7.03418e-07
3.1867e-07
-7.49617e-07
3.56546e-07
-7.92173e-07
3.96096e-07
-8.31262e-07
4.37244e-07
-8.67421e-07
4.7996e-07
-9.01449e-07
5.24259e-07
-9.34257e-07
5.70179e-07
-9.66711e-07
6.17767e-07
-9.99519e-07
6.67055e-07
-1.03328e-06
-1.06833e-06
7.18038e-07
2.44857e-10
-3.12662e-09
1.06158e-09
-1.12619e-08
2.57706e-09
-2.20381e-08
4.93321e-09
-3.58491e-08
8.28634e-09
-5.30915e-08
1.28056e-08
-7.41475e-08
1.86702e-08
-9.93629e-08
2.60661e-08
-1.29021e-07
3.51802e-08
-1.63314e-07
4.6194e-08
-2.02305e-07
5.92758e-08
-2.45898e-07
7.45725e-08
-2.93809e-07
9.22008e-08
-3.45545e-07
1.12239e-07
-4.00396e-07
1.34719e-07
-4.5745e-07
1.59628e-07
-5.15634e-07
1.86903e-07
-5.73782e-07
2.16441e-07
-6.30732e-07
2.4811e-07
-6.85437e-07
2.81764e-07
-7.37073e-07
3.1726e-07
-7.85113e-07
3.54466e-07
-8.29379e-07
3.93277e-07
-8.70073e-07
4.33625e-07
-9.07769e-07
4.75489e-07
-9.43313e-07
5.18887e-07
-9.77655e-07
5.63864e-07
-1.01169e-06
6.10471e-07
-1.04613e-06
6.58739e-07
-1.08154e-06
-1.11825e-06
7.08667e-07
2.57046e-10
-3.38366e-09
1.1085e-09
-1.21134e-08
2.68028e-09
-2.36099e-08
5.1126e-09
-3.82814e-08
8.55924e-09
-5.65381e-08
1.31858e-08
-7.8774e-08
1.9167e-08
-1.05344e-07
2.6683e-08
-1.36537e-07
3.59136e-08
-1.72545e-07
4.70319e-08
-2.13423e-07
6.01969e-08
-2.59063e-07
7.55451e-08
-3.09158e-07
9.31819e-08
-3.63182e-07
1.13174e-07
-4.20388e-07
1.35543e-07
-4.7982e-07
1.60266e-07
-5.40356e-07
1.87272e-07
-6.00787e-07
2.16452e-07
-6.59912e-07
2.47672e-07
-7.16657e-07
2.80787e-07
-7.70188e-07
3.15658e-07
-8.19984e-07
3.5216e-07
-8.65881e-07
3.90195e-07
-9.08107e-07
4.29701e-07
-9.47275e-07
4.70663e-07
-9.84275e-07
5.13103e-07
-1.0201e-06
5.57069e-07
-1.05565e-06
6.02613e-07
-1.09167e-06
6.49774e-07
-1.12871e-06
-1.16703e-06
6.98552e-07
2.6936e-10
-3.65302e-09
1.15585e-09
-1.29999e-08
2.78433e-09
-2.52383e-08
5.29322e-09
-4.07903e-08
8.83362e-09
-6.00785e-08
1.35675e-08
-8.35079e-08
1.96647e-08
-1.11441e-07
2.72993e-08
-1.44172e-07
3.66439e-08
-1.81889e-07
4.7863e-08
-2.24642e-07
6.11058e-08
-2.72306e-07
7.6498e-08
-3.2455e-07
9.41335e-08
-3.80818e-07
1.14067e-07
-4.40322e-07
1.36311e-07
-5.02063e-07
1.6083e-07
-5.64875e-07
1.87546e-07
-6.27503e-07
2.16345e-07
-6.88711e-07
2.47091e-07
-7.47403e-07
2.79641e-07
-8.02738e-07
3.13859e-07
-8.54202e-07
3.49628e-07
-9.0165e-07
3.86855e-07
-9.45334e-07
4.25485e-07
-9.85906e-07
4.65508e-07
-1.0243e-06
5.06948e-07
-1.06153e-06
5.49853e-07
-1.09856e-06
5.94279e-07
-1.1361e-06
6.40279e-07
-1.17471e-06
-1.21461e-06
6.87856e-07
2.81743e-10
-3.93476e-09
1.2034e-09
-1.39215e-08
2.88871e-09
-2.69236e-08
5.47418e-09
-4.33758e-08
9.10808e-09
-6.37124e-08
1.39485e-08
-8.83483e-08
2.01604e-08
-1.17653e-07
2.79114e-08
-1.51923e-07
3.73667e-08
-1.91345e-07
4.86818e-08
-2.35958e-07
6.19959e-08
-2.8562e-07
7.74235e-08
-3.39977e-07
9.5047e-08
-3.98441e-07
1.1491e-07
-4.60185e-07
1.37012e-07
-5.24165e-07
1.61308e-07
-5.89172e-07
1.87714e-07
-6.53909e-07
2.16111e-07
-7.17108e-07
2.4636e-07
-7.77652e-07
2.7832e-07
-8.34697e-07
3.1186e-07
-8.87743e-07
3.4687e-07
-9.3666e-07
3.83265e-07
-9.81729e-07
4.20995e-07
-1.02364e-06
4.60055e-07
-1.06336e-06
5.00471e-07
-1.10195e-06
5.42292e-07
-1.14038e-06
5.8558e-07
-1.17938e-06
6.30409e-07
-1.21953e-06
-1.26099e-06
6.76787e-07
2.94141e-10
-4.22891e-09
1.25095e-09
-1.48784e-08
2.99293e-09
-2.86656e-08
5.65458e-09
-4.60374e-08
9.38122e-09
-6.74391e-08
1.43269e-08
-9.3294e-08
2.06514e-08
-1.23978e-07
2.85158e-08
-1.59788e-07
3.80775e-08
-2.00906e-07
4.94828e-08
-2.47363e-07
6.28605e-08
-2.98998e-07
7.83141e-08
-3.55431e-07
9.59139e-08
-4.16041e-07
1.15691e-07
-4.79962e-07
1.37635e-07
-5.46109e-07
1.61692e-07
-6.13228e-07
1.87768e-07
-6.79985e-07
2.1574e-07
-7.4508e-07
2.45469e-07
-8.07381e-07
2.76816e-07
-8.66044e-07
3.09657e-07
-9.20583e-07
3.43888e-07
-9.70891e-07
3.79431e-07
-1.01727e-06
4.16248e-07
-1.06045e-06
4.54334e-07
-1.10144e-06
4.93721e-07
-1.14134e-06
5.34461e-07
-1.18112e-06
5.76625e-07
-1.22155e-06
6.20313e-07
-1.26322e-06
-1.30621e-06
6.65538e-07
3.065e-10
-4.53541e-09
1.29827e-09
-1.58701e-08
3.09651e-09
-3.04639e-08
5.83356e-09
-4.87745e-08
9.65165e-09
-7.12571e-08
1.47006e-08
-9.8343e-08
2.11349e-08
-1.30412e-07
2.91089e-08
-1.67762e-07
3.87717e-08
-2.10569e-07
5.02604e-08
-2.58852e-07
6.36933e-08
-3.12431e-07
7.91622e-08
-3.709e-07
9.67256e-08
-4.33604e-07
1.16403e-07
-4.9964e-07
1.38172e-07
-5.67879e-07
1.6197e-07
-6.37026e-07
1.87695e-07
-7.0571e-07
2.15222e-07
-7.72607e-07
2.4441e-07
-8.36569e-07
2.75124e-07
-8.96758e-07
3.07245e-07
-9.52705e-07
3.4068e-07
-1.00433e-06
3.75361e-07
-1.05195e-06
4.11255e-07
-1.09635e-06
4.48368e-07
-1.13856e-06
4.86735e-07
-1.1797e-06
5.26413e-07
-1.2208e-06
5.67483e-07
-1.26262e-06
6.10085e-07
-1.30582e-06
-1.35036e-06
6.54236e-07
3.18768e-10
-4.85417e-09
1.34516e-09
-1.68965e-08
3.19896e-09
-3.23177e-08
6.01027e-09
-5.15858e-08
9.91804e-09
-7.51649e-08
1.50678e-08
-1.03493e-07
2.16083e-08
-1.36953e-07
2.96871e-08
-1.7584e-07
3.94449e-08
-2.20327e-07
5.10094e-08
-2.70416e-07
6.44879e-08
-3.25909e-07
7.99606e-08
-3.86373e-07
9.74741e-08
-4.51118e-07
1.17036e-07
-5.19202e-07
1.38613e-07
-5.89455e-07
1.62132e-07
-6.60545e-07
1.87487e-07
-7.31065e-07
2.14548e-07
-7.99667e-07
2.43174e-07
-8.65196e-07
2.73235e-07
-9.26819e-07
3.04621e-07
-9.84091e-07
3.37245e-07
-1.03695e-06
3.71052e-07
-1.08576e-06
4.06023e-07
-1.13132e-06
4.42167e-07
-1.1747e-06
4.79529e-07
-1.21707e-06
5.18173e-07
-1.25944e-06
5.58187e-07
-1.30263e-06
5.99765e-07
-1.3474e-06
-1.39351e-06
6.42909e-07
3.30893e-10
-5.18507e-09
1.39142e-09
-1.7957e-08
3.29983e-09
-3.42261e-08
6.18386e-09
-5.44698e-08
1.01791e-08
-7.91601e-08
1.54264e-08
-1.0874e-07
2.2069e-08
-1.43595e-07
3.02471e-08
-1.84019e-07
4.0093e-08
-2.30173e-07
5.17244e-08
-2.82047e-07
6.5238e-08
-3.39423e-07
8.07021e-08
-4.01837e-07
9.81511e-08
-4.68567e-07
1.17581e-07
-5.38631e-07
1.38947e-07
-6.10822e-07
1.62169e-07
-6.83767e-07
1.87133e-07
-7.56029e-07
2.13707e-07
-8.26241e-07
2.41752e-07
-8.93241e-07
2.71142e-07
-9.56209e-07
3.01776e-07
-1.01472e-06
3.33577e-07
-1.06875e-06
3.66503e-07
-1.11869e-06
4.00547e-07
-1.16536e-06
4.3573e-07
-1.20988e-06
4.72105e-07
-1.25344e-06
5.09739e-07
-1.29708e-06
5.48729e-07
-1.34162e-06
5.89315e-07
-1.38799e-06
-1.43565e-06
6.31456e-07
3.42826e-10
-5.52789e-09
1.43683e-09
-1.90511e-08
3.39866e-09
-3.61879e-08
6.35351e-09
-5.74246e-08
1.04334e-08
-8.324e-08
1.57747e-08
-1.14081e-07
2.25143e-08
-1.50335e-07
3.07855e-08
-1.9229e-07
4.07116e-08
-2.40099e-07
5.24004e-08
-2.93736e-07
6.59376e-08
-3.5296e-07
8.13797e-08
-4.17279e-07
9.87488e-08
-4.85936e-07
1.18029e-07
-5.57912e-07
1.39166e-07
-6.31959e-07
1.6207e-07
-7.0667e-07
1.86623e-07
-7.80582e-07
2.12689e-07
-8.52307e-07
2.40133e-07
-9.20685e-07
2.68834e-07
-9.8491e-07
2.987e-07
-1.04459e-06
3.29667e-07
-1.09972e-06
3.61702e-07
-1.15072e-06
3.94818e-07
-1.19848e-06
4.29046e-07
-1.24411e-06
4.64446e-07
-1.28884e-06
5.0109e-07
-1.33372e-06
5.39059e-07
-1.37959e-06
5.78588e-07
-1.42752e-06
-1.47668e-06
6.19624e-07
3.54518e-10
-5.88241e-09
1.48122e-09
-2.01778e-08
3.495e-09
-3.82017e-08
6.51843e-09
-6.04481e-08
1.06799e-08
-8.74015e-08
1.61107e-08
-1.19512e-07
2.29419e-08
-1.57166e-07
3.1299e-08
-2.00647e-07
4.12966e-08
-2.50096e-07
5.30324e-08
-3.05472e-07
6.65807e-08
-3.66508e-07
8.19863e-08
-4.32684e-07
9.92592e-08
-5.03209e-07
1.18372e-07
-5.77025e-07
1.3926e-07
-6.52847e-07
1.61826e-07
-7.29236e-07
1.85946e-07
-8.04702e-07
2.11484e-07
-8.77845e-07
2.38306e-07
-9.47507e-07
2.663e-07
-1.0129e-06
2.95384e-07
-1.07367e-06
3.25502e-07
-1.12984e-06
3.56639e-07
-1.18186e-06
3.88821e-07
-1.23066e-06
4.22097e-07
-1.27739e-06
4.56535e-07
-1.32328e-06
4.92202e-07
-1.36939e-06
5.29137e-07
-1.41652e-06
5.67384e-07
-1.46576e-06
-1.51627e-06
6.06971e-07
3.65915e-10
-6.24833e-09
1.52437e-09
-2.13362e-08
3.5884e-09
-4.02657e-08
6.67781e-09
-6.35375e-08
1.09171e-08
-9.16408e-08
1.64327e-08
-1.25028e-07
2.33492e-08
-1.64082e-07
3.17844e-08
-2.09082e-07
4.1844e-08
-2.60156e-07
5.36153e-08
-3.17243e-07
6.71615e-08
-3.80054e-07
8.25153e-08
-4.48038e-07
9.96749e-08
-5.20368e-07
1.18601e-07
-5.95951e-07
1.39221e-07
-6.73466e-07
1.61427e-07
-7.51442e-07
1.85092e-07
-8.28367e-07
2.1008e-07
-9.02833e-07
2.36261e-07
-9.73689e-07
2.63529e-07
-1.04017e-06
2.91813e-07
-1.10196e-06
3.21069e-07
-1.15909e-06
3.51297e-07
-1.21209e-06
3.8254e-07
-1.2619e-06
4.14865e-07
-1.30971e-06
4.48356e-07
-1.35677e-06
4.83093e-07
-1.40413e-06
5.19087e-07
-1.45252e-06
5.55921e-07
-1.5026e-06
-1.55315e-06
5.92799e-07
3.77002e-10
-6.62533e-09
1.56617e-09
-2.25254e-08
3.67857e-09
-4.23781e-08
6.83108e-09
-6.669e-08
1.11442e-08
-9.59539e-08
1.67392e-08
-1.30623e-07
2.37342e-08
-1.71077e-07
3.22391e-08
-2.17587e-07
4.23503e-08
-2.70267e-07
5.4145e-08
-3.29038e-07
6.76749e-08
-3.93584e-07
8.29608e-08
-4.63324e-07
9.99891e-08
-5.37397e-07
1.1871e-07
-6.14672e-07
1.39039e-07
-6.93795e-07
1.60864e-07
-7.73267e-07
1.84053e-07
-8.51556e-07
2.0847e-07
-9.2725e-07
2.33988e-07
-9.99207e-07
2.60511e-07
-1.06669e-06
2.87977e-07
-1.12942e-06
3.16353e-07
-1.18747e-06
3.45658e-07
-1.24139e-06
3.75949e-07
-1.29219e-06
4.07315e-07
-1.34108e-06
4.3987e-07
-1.38933e-06
4.73752e-07
-1.43801e-06
5.09153e-07
-1.48792e-06
5.46147e-07
-1.53959e-06
-1.59395e-06
5.86947e-07
3.87686e-10
-7.01301e-09
1.60633e-09
-2.3744e-08
3.76489e-09
-4.45367e-08
6.97718e-09
-6.99023e-08
1.13596e-08
-1.00336e-07
1.7028e-08
-1.36291e-07
2.40939e-08
-1.78143e-07
3.26591e-08
-2.26152e-07
4.28108e-08
-2.80419e-07
5.46158e-08
-3.40843e-07
6.81142e-08
-4.07083e-07
8.33151e-08
-4.78525e-07
1.00193e-07
-5.54275e-07
1.18688e-07
-6.33166e-07
1.38705e-07
-7.13813e-07
1.60126e-07
-7.94688e-07
1.82816e-07
-8.74247e-07
2.0664e-07
-9.51074e-07
2.31475e-07
-1.02404e-06
2.57231e-07
-1.09245e-06
2.8386e-07
-1.15605e-06
3.11339e-07
-1.21495e-06
3.39701e-07
-1.26975e-06
3.69017e-07
-1.32151e-06
3.99391e-07
-1.37145e-06
4.30948e-07
-1.42088e-06
4.63845e-07
-1.4709e-06
4.98298e-07
-1.52237e-06
5.34522e-07
-1.57582e-06
-1.63235e-06
5.72928e-07
3.9795e-10
-7.41096e-09
1.64473e-09
-2.49908e-08
3.84705e-09
-4.6739e-08
7.11553e-09
-7.31708e-08
1.15623e-08
-1.04783e-07
1.72977e-08
-1.42027e-07
2.44263e-08
-1.85272e-07
3.30419e-08
-2.34768e-07
4.32223e-08
-2.90599e-07
5.50236e-08
-3.52644e-07
6.84747e-08
-4.20534e-07
8.35729e-08
-4.93623e-07
1.00281e-07
-5.70983e-07
1.18528e-07
-6.51413e-07
1.38212e-07
-7.33496e-07
1.59207e-07
-8.15683e-07
1.81375e-07
-8.96416e-07
2.04583e-07
-9.74282e-07
2.28713e-07
-1.04817e-06
2.53684e-07
-1.11742e-06
2.79455e-07
-1.18182e-06
3.06017e-07
-1.24151e-06
3.33415e-07
-1.29715e-06
3.61731e-07
-1.34983e-06
3.91076e-07
-1.4008e-06
4.21577e-07
-1.45139e-06
4.53381e-07
-1.50271e-06
4.86655e-07
-1.55565e-06
5.21534e-07
-1.6107e-06
-1.66894e-06
5.58123e-07
4.07745e-10
-7.81871e-09
1.68118e-09
-2.62642e-08
3.92465e-09
-4.89825e-08
7.24543e-09
-7.64915e-08
1.17512e-08
-1.09289e-07
1.75465e-08
-1.47822e-07
2.47293e-08
-1.92455e-07
3.33847e-08
-2.43423e-07
4.35812e-08
-3.00796e-07
5.53643e-08
-3.64427e-07
6.87514e-08
-4.33921e-07
8.37283e-08
-5.086e-07
1.00247e-07
-5.87501e-07
1.18224e-07
-6.69391e-07
1.37552e-07
-7.52824e-07
1.58097e-07
-8.36228e-07
1.79722e-07
-9.1804e-07
2.02292e-07
-9.96851e-07
2.25696e-07
-1.07158e-06
2.49859e-07
-1.14158e-06
2.74753e-07
-1.20672e-06
3.0038e-07
-1.26714e-06
3.26793e-07
-1.32356e-06
3.54087e-07
-1.37712e-06
3.82373e-07
-1.42908e-06
4.1178e-07
-1.48079e-06
4.42437e-07
-1.53336e-06
4.74474e-07
-1.58768e-06
5.07986e-07
-1.64421e-06
-1.70397e-06
5.43016e-07
4.17029e-10
-8.23574e-09
1.71553e-09
-2.75627e-08
3.99731e-09
-5.12643e-08
7.36617e-09
-7.98604e-08
1.19251e-08
-1.13848e-07
1.77731e-08
-1.5367e-07
2.50006e-08
-1.99682e-07
3.36847e-08
-2.52107e-07
4.38841e-08
-3.10995e-07
5.56336e-08
-3.76177e-07
6.89395e-08
-4.47227e-07
8.37759e-08
-5.23437e-07
1.00083e-07
-6.03809e-07
1.1777e-07
-6.87078e-07
1.36718e-07
-7.71772e-07
1.56792e-07
-8.56302e-07
1.77849e-07
-9.39098e-07
1.99759e-07
-1.01876e-06
2.22416e-07
-1.09423e-06
2.45754e-07
-1.16492e-06
2.69752e-07
-1.23071e-06
2.94424e-07
-1.29181e-06
3.19836e-07
-1.34898e-06
3.46087e-07
-1.40337e-06
3.73293e-07
-1.45629e-06
4.0158e-07
-1.50908e-06
4.31067e-07
-1.56285e-06
4.61863e-07
-1.61848e-06
4.94054e-07
-1.6764e-06
-1.73759e-06
5.27673e-07
4.25758e-10
-8.6615e-09
1.74759e-09
-2.88846e-08
4.06465e-09
-5.35813e-08
7.47707e-09
-8.32728e-08
1.20832e-08
-1.18454e-07
1.79759e-08
-1.59563e-07
2.52384e-08
-2.06945e-07
3.39393e-08
-2.60808e-07
4.41276e-08
-3.21184e-07
5.58277e-08
-3.87877e-07
6.90345e-08
-4.60434e-07
8.37107e-08
-5.38113e-07
9.9786e-08
-6.19884e-07
1.1716e-07
-7.04452e-07
1.35706e-07
-7.90318e-07
1.55284e-07
-8.7588e-07
1.75751e-07
-9.59565e-07
1.9698e-07
-1.03999e-06
2.18869e-07
-1.11612e-06
2.41363e-07
-1.18742e-06
2.64448e-07
-1.2538e-06
2.8815e-07
-1.31551e-06
3.12544e-07
-1.37337e-06
3.37736e-07
-1.42856e-06
3.63846e-07
-1.4824e-06
3.90998e-07
-1.53623e-06
4.19304e-07
-1.59116e-06
4.48865e-07
-1.64804e-06
4.79768e-07
-1.7073e-06
-1.76987e-06
5.12049e-07
4.33895e-10
-9.09539e-09
1.77721e-09
-3.02279e-08
4.1263e-09
-5.59304e-08
7.5775e-09
-8.6724e-08
1.22242e-08
-1.23101e-07
1.81533e-08
-1.65492e-07
2.54405e-08
-2.14232e-07
3.41459e-08
-2.69514e-07
4.43088e-08
-3.31346e-07
5.59429e-08
-3.99511e-07
6.9032e-08
-4.73523e-07
8.35278e-08
-5.52609e-07
9.93495e-08
-6.35706e-07
1.16387e-07
-7.21489e-07
1.34508e-07
-8.08439e-07
1.53568e-07
-8.9494e-07
1.73424e-07
-9.79421e-07
1.9395e-07
-1.06052e-06
2.15053e-07
-1.13723e-06
2.36685e-07
-1.20905e-06
2.58841e-07
-1.27596e-06
2.81558e-07
-1.33823e-06
3.0492e-07
-1.39673e-06
3.2904e-07
-1.45268e-06
3.54042e-07
-1.5074e-06
3.80047e-07
-1.56224e-06
4.07167e-07
-1.61828e-06
4.35496e-07
-1.67637e-06
4.65126e-07
-1.73693e-06
-1.80084e-06
4.96098e-07
4.41398e-10
-9.53679e-09
1.80423e-09
-3.15907e-08
4.18191e-09
-5.83081e-08
7.66682e-09
-9.02089e-08
1.23473e-08
-1.27781e-07
1.8304e-08
-1.71449e-07
2.56051e-08
-2.21533e-07
3.43022e-08
-2.78211e-07
4.44247e-08
-3.41469e-07
5.59757e-08
-4.11062e-07
6.89283e-08
-4.86475e-07
8.3223e-08
-5.66903e-07
9.87691e-08
-6.51252e-07
1.15448e-07
-7.38168e-07
1.33121e-07
-8.26111e-07
1.51639e-07
-9.13459e-07
1.70862e-07
-9.98644e-07
1.90665e-07
-1.08032e-06
2.10963e-07
-1.15752e-06
2.31717e-07
-1.2298e-06
2.5293e-07
-1.29717e-06
2.74649e-07
-1.35995e-06
2.96968e-07
-1.41905e-06
3.20006e-07
-1.47572e-06
3.43888e-07
-1.53128e-06
3.68739e-07
-1.58709e-06
3.94666e-07
-1.6442e-06
4.21763e-07
-1.70347e-06
4.50123e-07
-1.76529e-06
-1.83051e-06
4.79792e-07
4.48229e-10
-9.98502e-09
1.82851e-09
-3.2971e-08
4.23114e-09
-6.07107e-08
7.74444e-09
-9.37222e-08
1.24515e-08
-1.32488e-07
1.84267e-08
-1.77424e-07
2.57305e-08
-2.28837e-07
3.44058e-08
-2.86886e-07
4.44725e-08
-3.51536e-07
5.5923e-08
-4.22513e-07
6.87196e-08
-4.99272e-07
8.27924e-08
-5.80976e-07
9.80407e-08
-6.665e-07
1.14338e-07
-7.54465e-07
1.3154e-07
-8.43313e-07
1.49495e-07
-9.31414e-07
1.68063e-07
-1.01721e-06
1.87125e-07
-1.09938e-06
2.066e-07
-1.177e-06
2.26461e-07
-1.24966e-06
2.46717e-07