/*--------------------------------*- C++ -*----------------------------------*\
| =========                 |                                                 |
| \\      /  F ield         | foam-extend: Open Source CFD                    |
|  \\    /   O peration     | Version:     4.0                                |
|   \\  /    A nd           | Web:         http://www.foam-extend.org         |
|    \\/     M anipulation  |                                                 |
\*---------------------------------------------------------------------------*/
FoamFile
{
    version     2.0;
    format      ascii;
    class       volVectorField;
    location    "5";
    object      U;
}
// * * * * * * * * * * * * * * * * * * * * * * * * * * * * * * * * * * * * * //

dimensions      [0 1 -1 0 0 0 0];

internalField   nonuniform List<vector> 
36000
(
(9.30475e-08 -7.46838e-07 -7.48442e-26)
(1.74974e-06 -2.80639e-06 7.72762e-26)
(6.20359e-06 -5.49267e-06 0)
(1.43459e-05 -8.80855e-06 0)
(2.71824e-05 -1.27429e-05 -6.06736e-26)
(4.58134e-05 -1.72681e-05 -5.48798e-26)
(7.14045e-05 -2.23373e-05 0)
(0.000105144 -2.78827e-05 0)
(0.000148204 -3.38135e-05 0)
(0.000201689 -4.00151e-05 0)
(0.000266582 -4.63498e-05 0)
(0.000343685 -5.26586e-05 -3.72581e-26)
(0.000433545 -5.87655e-05 3.1036e-27)
(0.000536401 -6.44839e-05 -2.24806e-26)
(0.000652122 -6.96262e-05 1.0337e-26)
(0.000780169 -7.40146e-05 -9.61359e-27)
(0.000919578 -7.7494e-05 1.00646e-27)
(0.00106898 -7.99459e-05 7.42447e-27)
(0.00122665 -8.12966e-05 -6.88045e-27)
(0.00139053 -8.15299e-05 -3.77381e-26)
(0.00155845 -8.06954e-05 -2.7858e-27)
(0.00172818 -7.8899e-05 -6.35723e-26)
(0.00189761 -7.62928e-05 1.52242e-26)
(0.00206483 -7.30589e-05 3.28138e-26)
(0.00222826 -6.93892e-05 3.11079e-26)
(0.00238669 -6.54659e-05 0)
(0.00253924 -6.14464e-05 0)
(0.00268539 -5.74549e-05 0)
(0.00282474 -5.35842e-05 -2.15488e-26)
(0.00295787 -4.99021e-05 3.86718e-26)
(1.75435e-07 -2.3082e-06 0)
(2.06695e-06 -8.62918e-06 0)
(6.83584e-06 -1.68416e-05 0)
(1.53733e-05 -2.69535e-05 2.63288e-25)
(2.86831e-05 -3.89304e-05 -6.3982e-26)
(4.78617e-05 -5.26874e-05 5.48737e-26)
(7.40685e-05 -6.8082e-05 0)
(0.000108483 -8.49075e-05 0)
(0.000152266 -0.000102888 -1.43973e-25)
(0.000206508 -0.000121675 1.35016e-25)
(0.000272175 -0.00014085 -9.83665e-26)
(0.000350046 -0.000159931 9.19698e-26)
(0.000440651 -0.000178383 3.1672e-26)
(0.000544203 -0.000195642 3.17563e-26)
(0.000660547 -0.000211138 3.63136e-26)
(0.000789123 -0.000224333 0)
(0.000928947 -0.000234759 6.12795e-27)
(0.00107864 -0.000242059 2.00961e-26)
(0.00123645 -0.000246012 -6.66756e-26)
(0.00140034 -0.000246575 6.26962e-26)
(0.00156814 -0.000243901 5.31637e-26)
(0.00173763 -0.000238315 -6.13872e-26)
(0.00190672 -0.000230283 5.92075e-26)
(0.00207352 -0.00022036 -1.2258e-25)
(0.00223649 -0.000209132 1.8307e-28)
(0.00239442 -0.000197155 -1.14108e-25)
(0.00254647 -0.000184906 1.57262e-25)
(0.00269213 -0.000172763 0)
(0.00283099 -0.000161009 0)
(0.00296369 -0.000149844 0)
(3.42279e-07 -3.88435e-06 3.13635e-25)
(2.7071e-06 -1.44862e-05 -5.53751e-27)
(8.10932e-06 -2.82343e-05 -4.55394e-25)
(1.744e-05 -4.51417e-05 5.44011e-25)
(3.16986e-05 -6.51501e-05 -6.39063e-25)
(5.19741e-05 -8.81178e-05 -4.47233e-25)
(7.94136e-05 -0.000113806 8.19633e-25)
(0.00011518 -0.000141871 -3.74569e-25)
(0.000160408 -0.00017185 0)
(0.000216163 -0.000203164 0)
(0.000283374 -0.000235115 0)
(0.000362783 -0.000266897 0)
(0.000454874 -0.00029762 1.23988e-25)
(0.000559813 -0.000326342 -2.50663e-25)
(0.000677399 -0.000352117 1.5369e-25)
(0.000807028 -0.000374048 0)
(0.000947677 -0.000391356 -5.08799e-28)
(0.00109794 -0.000403447 4.72043e-28)
(0.00125604 -0.000409956 0)
(0.00141994 -0.000410819 0)
(0.00158748 -0.000406292 -2.61058e-25)
(0.00175649 -0.000396918 1.62249e-25)
(0.0019249 -0.000383474 0)
(0.00209088 -0.000366888 -4.94541e-28)
(0.00225292 -0.000348136 1.13304e-25)
(0.00240987 -0.000328145 1.03812e-25)
(0.00256091 -0.00030771 -1.04444e-25)
(0.00270559 -0.000287461 -8.85515e-26)
(0.00284348 -0.000267868 0)
(0.00297531 -0.00024926 -2.17727e-25)
(5.96071e-07 -5.48482e-06 0)
(3.67655e-06 -2.03993e-05 0)
(1.00332e-05 -3.96987e-05 1.53053e-25)
(2.05567e-05 -6.34e-05 -5.70125e-25)
(3.62405e-05 -9.14216e-05 1.05996e-24)
(5.81617e-05 -0.000123564 -7.40076e-25)
(8.7449e-05 -0.000159495 0)
(0.000125239 -0.000198729 0)
(0.000172633 -0.000240624 -4.93275e-25)
(0.000230651 -0.000284368 5.71367e-25)
(0.000300173 -0.000328984 -2.54089e-25)
(0.00038188 -0.000373349 -2.05431e-25)
(0.00047619 -0.000416219 2.7663e-25)
(0.0005832 -0.000456279 -2.57907e-25)
(0.00070264 -0.000492208 -7.28355e-26)
(0.000833838 -0.000522756 0)
(0.000975714 -0.000546839 -7.30692e-26)
(0.00112682 -0.000563626 9.9172e-27)
(0.00128533 -0.000572616 -8.78085e-26)
(0.00144925 -0.000573732 -6.59226e-27)
(0.00161641 -0.000567331 -4.1158e-27)
(0.00178469 -0.000554171 -1.80574e-26)
(0.00195208 -0.00053534 1.01763e-25)
(0.00211682 -0.000512133 -2.11625e-25)
(0.00227747 -0.000485915 0)
(0.00243295 -0.000457976 -4.75449e-27)
(0.00258249 -0.000429429 -3.87076e-25)
(0.0027257 -0.000401147 1.84528e-25)
(0.00286215 -0.000373789 4.70765e-25)
(0.00299269 -0.0003478 4.20559e-25)
(9.40497e-07 -7.11874e-06 5.13136e-25)
(4.98471e-06 -2.63895e-05 -1.05308e-24)
(1.2621e-05 -5.12608e-05 6.69345e-25)
(2.47396e-05 -8.17535e-05 6.04832e-25)
(4.23257e-05 -0.000117762 -5.7215e-25)
(6.64407e-05 -0.000159029 2.48486e-25)
(9.81887e-05 -0.000205127 -6.58193e-25)
(0.000138671 -0.000255436 1.63825e-24)
(0.000188945 -0.00030913 -1.96652e-25)
(0.00024997 -0.000365167 3.24743e-25)
(0.00032256 -0.000422297 -2.75657e-25)
(0.000407315 -0.000479081 2.05361e-25)
(0.000504567 -0.000533925 0)
(0.00061432 -0.000585146 0)
(0.000736213 -0.000631055 3.73338e-25)
(0.000869482 -0.000670056 -1.51569e-25)
(0.00101298 -0.000700763 5.42601e-26)
(0.00116517 -0.000722113 7.50492e-27)
(0.00132424 -0.000733486 3.67859e-26)
(0.00148816 -0.000734791 1.6205e-25)
(0.00165481 -0.000726486 -5.91151e-26)
(0.00182212 -0.000709544 -3.49299e-25)
(0.00198815 -0.000685359 1.77128e-25)
(0.00215124 -0.000655591 2.48045e-26)
(0.00231004 -0.000621987 -1.87534e-25)
(0.00246356 -0.000586196 1.81875e-25)
(0.00261112 -0.000549637 1.80385e-25)
(0.00275238 -0.000513426 -1.32412e-27)
(0.00288692 -0.000478405 -1.73764e-25)
(0.00301575 -0.000445124 -2.75248e-25)
(1.38041e-06 -8.79468e-06 1.671e-24)
(6.64396e-06 -3.2476e-05 -3.67645e-25)
(1.58907e-05 -6.29446e-05 0)
(3.001e-05 -0.000100224 -3.4133e-25)
(4.99766e-05 -0.000144184 -1.50242e-24)
(7.68324e-05 -0.000194512 1.69554e-24)
(0.000111651 -0.000250683 7.30367e-25)
(0.000155489 -0.000311943 -4.4828e-25)
(0.000209347 -0.000377284 3.78935e-25)
(0.000274115 -0.000445441 -1.6815e-24)
(0.000350517 -0.00051489 8.83781e-25)
(0.000439058 -0.000583882 -1.95627e-25)
(0.000539961 -0.000650479 7.84405e-25)
(0.000653116 -0.000712638 -3.37506e-25)
(0.000778044 -0.000768307 -6.67415e-25)
(0.000913872 -0.000815547 3.24216e-25)
(0.00105935 -0.00085268 -2.03658e-25)
(0.00121288 -0.000878433 5.04595e-27)
(0.00137262 -0.000892068 -5.18612e-26)
(0.00153653 -0.000893481 4.332e-26)
(0.00170254 -0.000883234 -2.01933e-25)
(0.00186862 -0.000862515 2.7402e-25)
(0.00203295 -0.000833021 0)
(0.00219398 -0.00079677 1.61697e-25)
(0.00235049 -0.000755882 1.73749e-25)
(0.00250158 -0.000712359 3.03577e-25)
(0.00264668 -0.00066792 -3.04794e-25)
(0.00278552 -0.00062391 0)
(0.00291769 -0.000581357 -6.79613e-25)
(0.0030444 -0.000540895 1.24014e-25)
(1.92174e-06 -1.05205e-05 0)
(8.66943e-06 -3.86765e-05 0)
(1.9864e-05 -7.47714e-05 0)
(3.63937e-05 -0.000118831 -2.78699e-26)
(5.92206e-05 -0.000170699 2.28058e-24)
(8.93627e-05 -0.000230006 -1.7872e-24)
(0.000127857 -0.000296134 1.05603e-24)
(0.000175708 -0.000368194 -1.96534e-24)
(0.000233847 -0.000445001 -4.51071e-25)
(0.000303078 -0.000525064 -7.2034e-25)
(0.000384025 -0.000606598 6.74356e-25)
(0.000477074 -0.000687543 2.56798e-25)
(0.00058232 -0.000765627 2.45247e-27)
(0.000699512 -0.00083845 0)
(0.000828031 -0.000903604 -5.17567e-26)
(0.000966877 -0.000958825 1.27336e-25)
(0.00111469 -0.00100216 -1.6895e-25)
(0.0012698 -0.00103212 6.6969e-26)
(0.00143031 -0.00104787 1.59172e-25)
(0.00159419 -0.00104929 -6.22247e-26)
(0.0017594 -0.00103706 -2.77235e-26)
(0.00192401 -0.00101257 1.15699e-25)
(0.00208631 -0.000977825 -3.596e-27)
(0.00224488 -0.000935187 8.59063e-26)
(0.00239865 -0.000887143 2.61919e-25)
(0.00254685 -0.000836035 -4.34574e-25)
(0.00268902 -0.000783873 1.66116e-25)
(0.00282499 -0.000732222 2.65423e-25)
(0.00295434 -0.000682295 4.81457e-25)
(0.00307853 -0.000634785 -2.21299e-25)
(2.57146e-06 -1.23034e-05 -1.73353e-24)
(1.10788e-05 -4.50063e-05 0)
(2.45665e-05 -8.6759e-05 -1.63771e-24)
(4.39209e-05 -0.000137588 1.92139e-24)
(7.00892e-05 -0.000197311 -2.07892e-24)
(0.000104062 -0.000265501 2.59659e-24)
(0.000146831 -0.000341449 -2.3589e-24)
(0.000199344 -0.000424131 5.5921e-25)
(0.000262449 -0.000512188 9.2567e-25)
(0.000336852 -0.00060391 -7.63214e-26)
(0.000423057 -0.000697251 -1.51578e-24)
(0.000521317 -0.000789851 1.16851e-24)
(0.000631571 -0.000879107 -1.15675e-24)
(0.000753409 -0.000962271 -1.68265e-24)
(0.000886056 -0.0010366 1.03274e-24)
(0.00102837 -0.0010995 2.29959e-25)
(0.00117885 -0.00114877 -5.86134e-25)
(0.00133576 -0.00118272 -2.97807e-25)
(0.00149713 -0.00120041 -1.1367e-25)
(0.00166094 -0.00120173 1.76551e-25)
(0.0018252 -0.00118746 -9.48034e-26)
(0.00198808 -0.00115922 5.18093e-27)
(0.00214801 -0.00111928 6.9134e-26)
(0.00230373 -0.00107037 -4.03906e-25)
(0.00245432 -0.00101532 -2.6181e-25)
(0.00259919 -0.000956803 2.66368e-25)
(0.00273797 -0.000897104 3.15908e-26)
(0.00287062 -0.000837998 -2.20534e-25)
(0.00299672 -0.000780881 -4.33103e-25)
(0.00311801 -0.000726475 5.37365e-25)
(3.33745e-06 -1.41495e-05 1.87118e-24)
(1.38923e-05 -5.14783e-05 -2.43307e-24)
(3.00269e-05 -9.89216e-05 -1.78105e-24)
(5.26257e-05 -0.000156504 1.68805e-24)
(8.26181e-05 -0.000224019 1.52566e-24)
(0.000120963 -0.000300982 -6.96811e-25)
(0.000168603 -0.000386589 0)
(0.000226415 -0.000479689 0)
(0.000295158 -0.000578748 4.97767e-25)
(0.000375423 -0.000681845 8.78288e-25)
(0.000467582 -0.000786676 2.31884e-24)
(0.000571729 -0.000890588 -1.4528e-24)
(0.000687631 -0.000990654 -7.88549e-26)
(0.000814703 -0.0010838 9.16592e-25)
(0.000951991 -0.00116694 -5.50573e-25)
(0.00109818 -0.00123719 -6.82584e-25)
(0.00125166 -0.00129209 1.37967e-24)
(0.00141054 -0.00132978 2.03145e-25)
(0.00157285 -0.00134922 1.77959e-27)
(0.00173653 -0.00135031 3.8168e-27)
(0.00189968 -0.00133395 -6.47755e-26)
(0.00206058 -0.00130197 -1.0281e-26)
(0.00221781 -0.00125693 -1.07181e-25)
(0.00237029 -0.00120188 9.03883e-26)
(0.00251728 -0.00113999 -1.71967e-25)
(0.00265837 -0.00107426 4.83211e-25)
(0.00279334 -0.00100724 3.7628e-25)
(0.00292225 -0.000940889 8.55667e-27)
(0.00304469 -0.000876788 -1.65891e-25)
(0.00316272 -0.000815658 -3.46839e-25)
(4.22845e-06 -1.60638e-05 -1.50142e-24)
(1.71319e-05 -5.81027e-05 2.60279e-24)
(3.62771e-05 -0.000111269 -1.02256e-24)
(6.25454e-05 -0.000175586 2.75795e-24)
(9.68463e-05 -0.000250818 -1.70704e-24)
(0.000140102 -0.000336424 -7.43365e-25)
(0.000193201 -0.00043151 -2.78953e-24)
(0.00025694 -0.000534795 2.6238e-24)
(0.000331977 -0.000644579 -1.2173e-24)
(0.000418776 -0.000758729 0)
(0.00051756 -0.000874694 -1.74667e-24)
(0.000628245 -0.000989532 1.63258e-24)
(0.000750411 -0.00110001 -6.49841e-25)
(0.000883275 -0.00120272 1.19326e-24)
(0.00102569 -0.00129429 4.31143e-25)
(0.00117615 -0.00137152 0)
(0.00133289 -0.00143172 1.20615e-25)
(0.00149393 -0.00147286 0)
(0.00165721 -0.00149383 9.65718e-26)
(0.00182071 -0.00149456 4.55572e-25)
(0.00198258 -0.00147606 2.95115e-25)
(0.00214124 -0.00144035 -4.10524e-28)
(0.00229543 -0.0013903 -1.0072e-25)
(0.00244428 -0.00132926 8.29194e-26)
(0.00258728 -0.00126074 0)
(0.00272417 -0.00118803 -2.04657e-25)
(0.00285491 -0.00111392 -2.19351e-26)
(0.00297968 -0.00104056 -3.15093e-25)
(0.00309806 -0.000969708 0)
(0.00321249 -0.000902039 1.98888e-25)
(5.25391e-06 -1.80503e-05 6.28785e-25)
(2.08216e-05 -6.48865e-05 1.18871e-24)
(4.33514e-05 -0.000123807 2.13695e-24)
(7.37202e-05 -0.000194829 -5.93451e-24)
(0.000112815 -0.000277692 2.76263e-24)
(0.000161518 -0.000371797 -2.46595e-24)
(0.000220655 -0.000476159 6.22945e-24)
(0.000290937 -0.000589372 -2.88429e-24)
(0.000372908 -0.000709569 2.56148e-24)
(0.000466893 -0.000834417 0)
(0.000572947 -0.000961121 0)
(0.000690795 -0.00108646 2.64046e-24)
(0.00081981 -0.00120691 -1.28598e-25)
(0.000958993 -0.00131875 -1.36179e-24)
(0.00110698 -0.0014183 1.45067e-25)
(0.00126208 -0.00150211 -1.4739e-26)
(0.00142234 -0.00156724 -1.31363e-24)
(0.00158567 -0.00161153 6.13547e-25)
(0.00174995 -0.00163381 -3.75331e-25)
(0.00191318 -0.00163403 2.83376e-25)
(0.00207359 -0.00161332 -8.67317e-25)
(0.00222974 -0.00157393 -5.97586e-25)
(0.00238057 -0.00151897 3.22828e-25)
(0.00252543 -0.00145212 2.56981e-25)
(0.00266402 -0.00137718 -6.59755e-26)
(0.00279633 -0.00129774 6.52812e-26)
(0.00292244 -0.00121681 0)
(0.00304269 -0.00113671 1.96544e-25)
(0.00315665 -0.00105935 0)
(0.00326717 -0.000985342 -2.77989e-25)
(6.42391e-06 -2.01118e-05 -1.16297e-24)
(2.49869e-05 -7.18336e-05 3.73847e-24)
(5.12859e-05 -0.000136535 -4.58003e-24)
(8.61927e-05 -0.000214228 -9.39455e-26)
(0.000130569 -0.000304623 2.01899e-24)
(0.000185251 -0.000407063 -4.56807e-24)
(0.000250997 -0.000520476 3.46472e-24)
(0.000328424 -0.000643331 0)
(0.00041795 -0.000773603 1.41877e-24)
(0.000519749 -0.00090876 -3.92282e-24)
(0.000633693 -0.00104577 0)
(0.000759298 -0.00118115 -3.90137e-24)
(0.000895715 -0.00131109 1.78819e-24)
(0.00104171 -0.00143159 -1.57745e-24)
(0.00119568 -0.00153866 -1.01517e-24)
(0.00135573 -0.0016286 2.07092e-24)
(0.00151973 -0.00169827 0)
(0.00168546 -0.00174539 7.48772e-25)
(0.00185075 -0.00176872 9.80049e-25)
(0.00201361 -0.00176827 -1.82969e-24)
(0.00217237 -0.00174531 5.41923e-25)
(0.00232574 -0.00170227 -5.21638e-25)
(0.00247288 -0.00164252 -2.51228e-25)
(0.00261339 -0.00157005 -2.31702e-25)
(0.00274721 -0.00148895 -8.183e-26)
(0.00287454 -0.00140306 0)
(0.00299566 -0.0013156 -1.12801e-25)
(0.00311104 -0.00122904 0)
(0.00322024 -0.00114546 0)
(0.00332654 -0.00106531 -7.30382e-26)
(7.74903e-06 -2.22498e-05 1.37515e-24)
(2.96545e-05 -7.89443e-05 -1.40672e-24)
(6.01186e-05 -0.000149449 -6.24103e-24)
(0.000100007 -0.000233768 5.89792e-24)
(0.000150152 -0.000331581 -5.40979e-24)
(0.000211342 -0.000442176 6.23886e-24)
(0.000284259 -0.000564393 -3.69231e-24)
(0.000369416 -0.000696579 6.83939e-24)
(0.0004671 -0.000836556 -3.1611e-24)
(0.000577316 -0.0009816 1.33243e-24)
(0.000699739 -0.00112845 1.11875e-24)
(0.000833664 -0.00127338 -2.39499e-24)
(0.000977998 -0.0014123 0)
(0.00113126 -0.00154093 1.74836e-24)
(0.00129159 -0.00165502 1.56009e-25)
(0.00145688 -0.00175062 2.43306e-24)
(0.0016248 -0.00182443 -2.13744e-24)
(0.00179301 -0.00187403 7.73657e-25)
(0.00195928 -0.00189816 -1.19002e-24)
(0.00212165 -0.00189689 2.04208e-24)
(0.00227855 -0.00187161 0)
(0.00242887 -0.00182496 0)
(0.00257201 -0.00176057 7.61817e-25)
(0.00270781 -0.00168269 1.71057e-25)
(0.00283649 -0.0015957 -4.47356e-25)
(0.00295848 -0.00150366 -2.15725e-25)
(0.00307426 -0.00141001 1.12762e-25)
(0.00318445 -0.0013173 1.8548e-25)
(0.00328857 -0.00122779 1.261e-25)
(0.00339038 -0.00114173 -7.45346e-26)
(9.24019e-06 -2.44642e-05 -7.10263e-24)
(3.48517e-05 -8.62153e-05 1.40669e-24)
(6.98883e-05 -0.000162538 0)
(0.000115207 -0.000253426 0)
(0.00017161 -0.000358531 -4.74797e-24)
(0.00023983 -0.000477081 2.35471e-24)
(0.000320469 -0.000607832 0)
(0.000413928 -0.000749013 0)
(0.000520348 -0.000898296 -1.56534e-24)
(0.000639558 -0.00105278 4.75894e-24)
(0.000771019 -0.00120897 -1.36814e-25)
(0.00091379 -0.00136292 1.36516e-24)
(0.00106652 -0.00151027 -5.33641e-26)
(0.00122745 -0.00164648 -3.59312e-24)
(0.00139449 -0.00176706 3.41105e-24)
(0.00156525 -0.00186784 1.78739e-25)
(0.00173724 -0.00194535 1.07649e-24)
(0.00190798 -0.00199706 3.8552e-24)
(0.00207518 -0.00202173 -4.7828e-24)
(0.00223692 -0.00201947 0)
(0.00239174 -0.00199182 0)
(0.00253874 -0.00194162 1.56289e-24)
(0.00267755 -0.00187274 -6.50483e-25)
(0.00280831 -0.00178969 5.13239e-25)
(0.00293149 -0.00169711 -2.99242e-25)
(0.0030478 -0.00159927 1.47537e-24)
(0.0031579 -0.00149977 -4.2611e-26)
(0.00326259 -0.00140126 -3.31442e-25)
(0.00336133 -0.00130614 1.23601e-25)
(0.00345838 -0.0012144 1.90682e-25)
(1.09086e-05 -2.67539e-05 -4.56765e-24)
(4.06065e-05 -9.36397e-05 6.38286e-24)
(8.06342e-05 -0.000175786 0)
(0.000131839 -0.000273176 -5.54795e-24)
(0.000194988 -0.000385428 2.53324e-24)
(0.000270755 -0.000511716 0)
(0.000359655 -0.000650708 2.32639e-24)
(0.000461968 -0.000800524 -2.13746e-24)
(0.00057768 -0.000958688 -1.78606e-24)
(0.000706432 -0.00112212 -1.61662e-24)
(0.000847456 -0.00128714 1.4521e-24)
(0.000999562 -0.00144954 -5.44132e-24)
(0.00116112 -0.00160474 4.81205e-24)
(0.00133011 -0.00174796 2.22046e-24)
(0.00150413 -0.00187447 -3.65017e-24)
(0.00168057 -0.00197992 1.88514e-25)
(0.00185674 -0.00206067 -2.5131e-24)
(0.00203002 -0.00211413 -1.81383e-24)
(0.00219807 -0.00213905 1.90848e-24)
(0.00235901 -0.00213564 1.58617e-24)
(0.00251153 -0.00210558 2.41282e-24)
(0.00265492 -0.0020519 -1.88517e-24)
(0.00278909 -0.0019787 0)
(0.00291445 -0.00189074 -1.04928e-24)
(0.0030318 -0.00179288 -5.29298e-25)
(0.00314209 -0.00168962 -1.08875e-25)
(0.0032462 -0.00158466 7.78191e-25)
(0.00334507 -0.00148072 -3.37705e-25)
(0.00343816 -0.00138035 -1.90048e-25)
(0.00353016 -0.00128319 2.60135e-25)
(1.27655e-05 -2.9116e-05 -1.61572e-24)
(4.69469e-05 -0.000101207 1.78753e-24)
(9.23956e-05 -0.000189173 -1.68055e-24)
(0.000149947 -0.000292982 -1.57433e-24)
(0.00022033 -0.000412221 2.71312e-24)
(0.000304154 -0.000546008 7.92557e-24)
(0.00040184 -0.000692929 -9.74545e-24)
(0.000513541 -0.000850991 2.13699e-24)
(0.000639076 -0.00101758 -1.88743e-24)
(0.000777886 -0.00118946 7.40037e-24)
(0.000928964 -0.00136273 -6.6774e-24)
(0.00109085 -0.001533 2.99139e-24)
(0.00126164 -0.00169545 -7.75844e-24)
(0.001439 -0.00184508 -4.38852e-24)
(0.00162025 -0.00197694 8.28706e-24)
(0.00180254 -0.00208652 1.70969e-24)
(0.00198295 -0.00217004 -6.29575e-24)
(0.00215873 -0.00222487 5.07395e-24)
(0.00232752 -0.00224978 -2.2183e-24)
(0.00248749 -0.00224505 -1.85613e-24)
(0.00263747 -0.00221254 2.21799e-25)
(0.00277697 -0.00215546 0)
(0.00290617 -0.00207812 9.98116e-25)
(0.0030258 -0.00198552 0)
(0.00313697 -0.00188275 1.02294e-24)
(0.00324091 -0.00177445 2.18584e-25)
(0.00333871 -0.00166445 0)
(0.00343147 -0.00155552 1.60135e-25)
(0.0035186 -0.00145028 -4.11655e-25)
(0.00360522 -0.00134801 3.77494e-25)
(1.48221e-05 -3.15464e-05 0)
(5.39006e-05 -0.000108902 -1.78747e-24)
(0.000105211 -0.000202669 -5.26249e-24)
(0.000169573 -0.0003128 1.15512e-23)
(0.000247676 -0.000438849 -9.23498e-24)
(0.00034006 -0.000579876 -2.63678e-24)
(0.000447044 -0.000734389 7.8263e-24)
(0.000568644 -0.00090029 -2.51862e-24)
(0.000704508 -0.00107483 2.24404e-24)
(0.00085386 -0.00125461 -4.09598e-24)
(0.00101544 -0.00143556 3.58114e-24)
(0.00118752 -0.00161308 -3.34641e-24)
(0.00136789 -0.00178215 -2.71085e-25)
(0.0015539 -0.00193756 1.5516e-25)
(0.00174259 -0.00207418 2.51617e-24)
(0.00193083 -0.00218733 0)
(0.0021155 -0.00227315 3.16826e-24)
(0.00229374 -0.00232896 -2.67893e-24)
(0.00246313 -0.00235357 0)
(0.00262192 -0.00234737 1.85529e-24)
(0.00276909 -0.00231237 2.19557e-26)
(0.0029044 -0.00225197 -1.42595e-24)
(0.00302832 -0.0021707 -3.34584e-24)
(0.0031419 -0.00207375 -1.90576e-24)
(0.00324655 -0.00196643 0)
(0.00334381 -0.00185352 -1.01571e-24)
(0.00343497 -0.00173895 0)
(0.00352128 -0.00162546 -6.42722e-25)
(0.00360212 -0.00151579 0)
(0.00368299 -0.00140879 -1.04246e-24)
(1.70896e-05 -3.40393e-05 0)
(6.14946e-05 -0.000116706 0)
(0.000119117 -0.000216242 0)
(0.00019076 -0.000332581 -7.05528e-24)
(0.000277066 -0.000465242 9.714e-24)
(0.000378501 -0.000613232 -6.17316e-24)
(0.00049528 -0.000774979 2.94909e-24)
(0.000627271 -0.000948283 5.23928e-24)
(0.000773939 -0.00113027 0)
(0.000934283 -0.00131739 -4.56254e-24)
(0.00110679 -0.00150542 7.80449e-24)
(0.00128942 -0.00168955 -2.87098e-25)
(0.00147966 -0.00186458 -1.41293e-25)
(0.00167455 -0.00202512 -2.70456e-24)
(0.00187083 -0.00216588 2.60638e-24)
(0.0020651 -0.00228205 0)
(0.00225402 -0.00236968 -7.50519e-24)
(0.00243462 -0.00242609 6.36708e-24)
(0.00260444 -0.00245011 -2.82088e-24)
(0.00276182 -0.00244229 0)
(0.00290592 -0.00240478 -1.7719e-24)
(0.00303674 -0.00234116 1.63717e-24)
(0.00315506 -0.00225616 1.15442e-24)
(0.00326225 -0.00215517 7.83026e-25)
(0.00336006 -0.00204367 0)
(0.00345031 -0.00192659 1.47887e-24)
(0.00353448 -0.00180792 0)
(0.00361399 -0.00169038 0)
(0.00368818 -0.00157675 9.28073e-25)
(0.00376287 -0.00146544 1.11068e-24)
(1.95785e-05 -3.65876e-05 0)
(6.97549e-05 -0.000124597 0)
(0.000134149 -0.000229853 0)
(0.000213544 -0.000352267 7.5836e-24)
(0.000308533 -0.000491325 7.03884e-24)
(0.000419504 -0.000645977 -1.00625e-23)
(0.000546555 -0.000814578 3.11555e-24)
(0.000689404 -0.00099483 -5.4914e-24)
(0.000847323 -0.00118374 5.12637e-24)
(0.00101907 -0.00137762 -9.59173e-24)
(0.00120287 -0.00157208 2.77653e-25)
(0.00139638 -0.00176216 2.93606e-25)
(0.00159675 -0.00194249 3.77381e-24)
(0.00180071 -0.0021075 0)
(0.00200468 -0.00225177 -7.89481e-24)
(0.00220499 -0.00237039 4.91766e-24)
(0.00239811 -0.00245934 3.92119e-24)
(0.00258093 -0.00251595 -3.70892e-24)
(0.00275099 -0.00253912 3.15776e-24)
(0.00290672 -0.00252953 -2.40768e-24)
(0.00304747 -0.00248948 4.23472e-24)
(0.00317351 -0.00242275 -1.85527e-24)
(0.00328591 -0.00233422 0)
(0.00338639 -0.0022295 4.47645e-24)
(0.00347703 -0.00211422 -4.17386e-24)
(0.00355993 -0.00199342 3.46107e-26)
(0.00363678 -0.00187112 -1.39135e-24)
(0.00370912 -0.00175003 -1.01686e-24)
(0.00377626 -0.00163294 -6.78859e-25)
(0.00384433 -0.00151781 0)
(2.22991e-05 -3.91826e-05 0)
(7.8706e-05 -0.000132549 0)
(0.000150339 -0.000243456 4.14004e-24)
(0.00023796 -0.000371794 -7.88859e-24)
(0.000342108 -0.000517011 -7.55332e-24)
(0.000463084 -0.000678005 1.05473e-23)
(0.000600869 -0.000853057 -3.40389e-24)
(0.000755019 -0.00103978 -6.07777e-24)
(0.000924603 -0.00123507 2.89682e-24)
(0.00110814 -0.0014351 0)
(0.00130356 -0.00163534 9.15726e-24)
(0.00150821 -0.00183069 -8.55622e-24)
(0.00171893 -0.00201563 0)
(0.00193209 -0.00218444 0)
(0.00214381 -0.00233159 -3.09737e-24)
(0.00235014 -0.00245208 -5.43342e-24)
(0.00254735 -0.00254186 4.7243e-24)
(0.00273223 -0.00259828 3.70726e-24)
(0.00290232 -0.00262034 -6.63727e-24)
(0.00305613 -0.00260883 -2.9527e-24)
(0.00319325 -0.00256624 2.48764e-24)
(0.0033142 -0.0024965 -1.87646e-24)
(0.00342038 -0.00240467 1.73218e-24)
(0.00351385 -0.00229652 0)
(0.00359702 -0.00217783 -2.9436e-26)
(0.00367225 -0.00205373 5.67698e-24)
(0.00374145 -0.00192829 -1.61023e-24)
(0.00380626 -0.00180414 0)
(0.00386595 -0.00168412 2.22919e-24)
(0.00392704 -0.00156565 -1.80704e-24)
(2.52611e-05 -4.18143e-05 0)
(8.83705e-05 -0.000140531 -9.78981e-24)
(0.000167718 -0.000257001 8.99343e-24)
(0.000264039 -0.000391088 4.44147e-24)
(0.000377813 -0.000542207 -8.17374e-24)
(0.000509254 -0.000709201 -3.61124e-24)
(0.000658213 -0.000890282 1.74815e-23)
(0.00082408 -0.00108297 -1.63292e-23)
(0.00100571 -0.00128407 9.21895e-24)
(0.00120137 -0.00148963 5.6919e-24)
(0.0014087 -0.00169499 5.18924e-24)
(0.00162473 -0.00189492 0)
(0.00184594 -0.00208376 -7.98724e-24)
(0.00206839 -0.00225569 7.44309e-24)
(0.00228786 -0.00240508 9.3686e-24)
(0.00250015 -0.00252686 -6.2951e-24)
(0.00270133 -0.00261699 4.17168e-25)
(0.00288807 -0.00267284 -4.09846e-24)
(0.00305793 -0.00269352 3.46658e-24)
(0.00320957 -0.00267996 2.95146e-24)
(0.00334276 -0.00263482 2.57898e-25)
(0.00345834 -0.00256219 0)
(0.00355801 -0.00246728 3.86459e-24)
(0.00364418 -0.002356 0)
(0.0037196 -0.00223427 2.67927e-24)
(0.00378689 -0.00210729 2.5431e-25)
(0.00384814 -0.00197914 1.65124e-24)
(0.00390512 -0.0018524 -1.47179e-25)
(0.00395701 -0.00172996 -4.61371e-24)
(0.00401091 -0.00160855 2.84053e-24)
(2.84733e-05 -4.44712e-05 0)
(9.87689e-05 -0.000148509 -1.04354e-23)
(0.000186311 -0.000270431 2.45134e-23)
(0.000291805 -0.000410073 -4.52765e-24)
(0.000415668 -0.000566813 0)
(0.000558017 -0.000739443 2.59298e-25)
(0.000718571 -0.000926108 1.49316e-23)
(0.000896543 -0.00112425 -1.40381e-23)
(0.00109057 -0.00133057 -6.07067e-24)
(0.00129866 -0.00154101 6.2147e-24)
(0.00151814 -0.00175081 -2.13299e-23)
(0.00174572 -0.00195461 2.45068e-23)
(0.00197754 -0.00214665 -1.75335e-23)
(0.00220931 -0.00232101 3.94711e-24)
(0.0024365 -0.00247199 -6.78084e-24)
(0.00265463 -0.0025945 6.2477e-24)
(0.00285959 -0.00268449 5.94884e-24)
(0.00304797 -0.00273941 -4.46585e-24)
(0.00321736 -0.00275846 3.80126e-24)
(0.00336653 -0.00274273 -3.2536e-24)
(0.00349552 -0.00269506 2.65871e-25)
(0.00360544 -0.00261966 0)
(0.00369835 -0.00252188 -3.86323e-24)
(0.00377697 -0.00240777 3.31945e-25)
(0.0038444 -0.00228334 3.0354e-25)
(0.00390353 -0.00215385 2.50034e-24)
(0.00395662 -0.0020234 -2.06189e-24)
(0.00400554 -0.0018945 3.43716e-24)
(0.00404941 -0.00177011 2.87159e-24)
(0.00409606 -0.00164611 0)
(3.19438e-05 -4.71407e-05 1.08635e-23)
(0.000109919 -0.000156447 -2.86863e-24)
(0.000206141 -0.000283685 0)
(0.000321278 -0.000428664 -4.78005e-24)
(0.000455682 -0.000590722 0)
(0.000609368 -0.000768602 -4.17638e-24)
(0.000781914 -0.000960385 0)
(0.000972352 -0.00116344 -1.08935e-23)
(0.00117909 -0.00137438 -6.37433e-24)
(0.00139986 -0.00158905 1.91967e-23)
(0.0016317 -0.00180259 5.55429e-24)
(0.00187096 -0.00200955 -1.52941e-23)
(0.00211345 -0.00220407 3.43947e-25)
(0.00235453 -0.00238018 2.08967e-23)
(0.00258934 -0.00253211 -3.67845e-25)
(0.00281317 -0.00265478 -1.36264e-23)
(0.00302171 -0.00274417 -5.55963e-24)
(0.00321147 -0.00279779 0)
(0.00338009 -0.00281498 4.14504e-24)
(0.00352652 -0.00279699 3.54548e-24)
(0.00365102 -0.00274679 -6.54949e-24)
(0.00375504 -0.00266875 0)
(0.00384094 -0.00256833 -4.66685e-24)
(0.00391182 -0.00245168 -3.56721e-24)
(0.00397109 -0.00232489 -2.98719e-24)
(0.0040219 -0.00219324 -2.22406e-24)
(0.00406669 -0.00206085 2.29272e-24)
(0.00410746 -0.00193016 -3.43634e-24)
(0.00414324 -0.00180425 3.27859e-25)
(0.00418278 -0.00167792 2.61183e-24)
(3.56794e-05 -4.98087e-05 0)
(0.000121837 -0.000164304 -1.69709e-25)
(0.000227223 -0.000296699 -1.681e-23)
(0.00035247 -0.00044677 5.1199e-24)
(0.000497857 -0.000613819 0)
(0.000663292 -0.000796543 2.28977e-23)
(0.000848205 -0.000992959 -3.84213e-23)
(0.00105144 -0.00120037 8.00354e-24)
(0.00127117 -0.00141531 -1.44306e-23)
(0.00150484 -0.00163354 7.03325e-24)
(0.00174918 -0.00185012 0)
(0.00200022 -0.00205952 0)
(0.00225339 -0.00225581 -5.18292e-24)
(0.0025037 -0.00243297 4.65078e-24)
(0.00274602 -0.00258523 0)
(0.00297534 -0.0027075 6.83891e-24)
(0.00318721 -0.00279583 0)
(0.00337809 -0.00284782 1.08078e-23)
(0.00354566 -0.00286294 -4.8344e-24)
(0.00368904 -0.00284259 0)
(0.0038088 -0.00278992 -3.80487e-24)
(0.00390667 -0.00270939 0)
(0.00398537 -0.00260656 9.73895e-24)
(0.00404835 -0.00248765 4.27126e-24)
(0.00409934 -0.00235882 3.58583e-24)
(0.00414176 -0.00222534 0)
(0.00417821 -0.00209135 2.18907e-25)
(0.00421085 -0.0019592 2.10935e-24)
(0.00423864 -0.00183218 -3.19813e-24)
(0.00427135 -0.0017037 -2.61122e-24)
(3.96863e-05 -5.24601e-05 1.21838e-23)
(0.000134533 -0.000172037 -3.38209e-24)
(0.000249571 -0.000309401 -3.2541e-25)
(0.000385389 -0.000464295 1.63996e-23)
(0.000542188 -0.000635987 -1.57482e-23)
(0.000719763 -0.000823124 -4.70825e-24)
(0.000917392 -0.00102367 -2.55893e-25)
(0.00113372 -0.00123486 -2.39612e-25)
(0.00136668 -0.00145316 0)
(0.00161344 -0.00167428 -1.40559e-23)
(0.00187039 -0.00189319 1.92892e-23)
(0.00213324 -0.0021043 -1.1988e-23)
(0.00239704 -0.00230165 1.06887e-23)
(0.00265649 -0.00247919 -4.64887e-24)
(0.00290612 -0.00263115 0)
(0.00314071 -0.00275249 7.81088e-24)
(0.00335564 -0.00283932 -4.16531e-25)
(0.00354733 -0.00288936 -5.58657e-24)
(0.00371354 -0.00290222 4.82731e-24)
(0.0038536 -0.00287946 -4.46945e-24)
(0.00396835 -0.00282436 1.46813e-23)
(0.00405987 -0.00274151 -1.24586e-23)
(0.0041312 -0.00263651 5.51029e-24)
(0.00418616 -0.00251566 -1.78181e-23)
(0.00422881 -0.0023851 -7.13026e-24)
(0.00426284 -0.00225014 2.92768e-25)
(0.004291 -0.00211486 5.72656e-24)
(0.00431563 -0.00198157 6.69822e-24)
(0.00433564 -0.0018538 -1.93506e-24)
(0.00436186 -0.00172337 0)
(4.39691e-05 -5.50789e-05 -1.28567e-23)
(0.000148017 -0.0001796 -3.47548e-25)
(0.000273192 -0.000321717 6.05044e-24)
(0.000420033 -0.00048114 5.63794e-24)
(0.00058866 -0.0006571 -2.74713e-23)
(0.000778748 -0.0008482 4.09284e-23)
(0.000989416 -0.00105235 -2.85836e-23)
(0.00121911 -0.00126673 4.42127e-23)
(0.0014655 -0.00148776 -1.64782e-23)
(0.00172548 -0.00171106 -2.26157e-23)
(0.00199511 -0.00193159 1.4097e-23)
(0.00226975 -0.0021437 3.53601e-25)
(0.0025441 -0.0023414 6.01652e-24)
(0.00281253 -0.00251865 0)
(0.00306926 -0.00266971 8.8845e-24)
(0.00330885 -0.00278959 -7.76763e-24)
(0.00352653 -0.00287452 1.41571e-23)
(0.00371871 -0.00292232 -5.97845e-24)
(0.00388325 -0.00293274 -5.16575e-24)
(0.0040197 -0.00290753 -4.40938e-24)
(0.0041292 -0.0028501 -1.1082e-23)
(0.00421417 -0.0027651 1.34741e-23)
(0.00427801 -0.00265821 5.45399e-24)
(0.00432488 -0.00253572 -7.83874e-25)
(0.00435919 -0.00240379 -3.50152e-25)
(0.00438486 -0.00226768 0)
(0.00440485 -0.00213144 4.52674e-25)
(0.00442161 -0.00199733 -9.56539e-24)
(0.00443419 -0.00186921 1.90617e-24)
(0.00445422 -0.00173709 -3.35055e-24)
(4.85312e-05 -5.7648e-05 3.96197e-26)
(0.000162294 -0.000186944 2.06939e-23)
(0.000298086 -0.00033357 0)
(0.000456393 -0.000497201 1.23064e-23)
(0.000637247 -0.000677031 2.29729e-23)
(0.0008402 -0.000871621 -2.16735e-23)
(0.0010642 -0.00107884 -1.97156e-23)
(0.00130749 -0.00129581 1.42345e-23)
(0.00156748 -0.0015189 -8.85298e-24)
(0.00184077 -0.0017437 7.72889e-24)
(0.0021231 -0.00196513 -7.0772e-24)
(0.00240947 -0.00217751 -1.98642e-23)
(0.00269425 -0.00237488 1.21836e-23)
(0.00297144 -0.00255118 0)
(0.00323501 -0.00270075 -4.89661e-25)
(0.00347929 -0.00281868 -1.70526e-23)
(0.0036994 -0.00290131 -7.29614e-24)
(0.00389174 -0.0029466 0)
(0.00405429 -0.00295446 3.64519e-25)
(0.00418684 -0.00292679 9.8512e-24)
(0.00429086 -0.00286712 1.67845e-23)
(0.00436912 -0.00278018 -1.48987e-23)