/*--------------------------------*- C++ -*----------------------------------*\
| =========                 |                                                 |
| \\      /  F ield         | foam-extend: Open Source CFD                    |
|  \\    /   O peration     | Version:     4.0                                |
|   \\  /    A nd           | Web:         http://www.foam-extend.org         |
|    \\/     M anipulation  |                                                 |
\*---------------------------------------------------------------------------*/
FoamFile
{
    version     2.0;
    format      ascii;
    class       volScalarField;
    location    "15";
    object      p;
}
// * * * * * * * * * * * * * * * * * * * * * * * * * * * * * * * * * * * * * //

dimensions      [0 2 -2 0 0 0 0];

internalField   nonuniform List<scalar> 
36000
(
-4.23953e-06
-4.28052e-06
-4.32006e-06
-4.35098e-06
-4.37316e-06
-4.38658e-06
-4.39045e-06
-4.38365e-06
-4.36495e-06
-4.333e-06
-4.28628e-06
-4.22313e-06
-4.14165e-06
-4.03995e-06
-3.91609e-06
-3.76813e-06
-3.59431e-06
-3.39328e-06
-3.1641e-06
-2.90673e-06
-2.62217e-06
-2.31265e-06
-1.98178e-06
-1.63467e-06
-1.27785e-06
-9.19131e-07
-5.67312e-07
-2.3153e-07
7.93357e-08
3.63066e-07
-4.26834e-06
-4.30887e-06
-4.34794e-06
-4.37844e-06
-4.40026e-06
-4.41337e-06
-4.41697e-06
-4.40996e-06
-4.39111e-06
-4.35908e-06
-4.31236e-06
-4.24928e-06
-4.16799e-06
-4.06653e-06
-3.94296e-06
-3.79537e-06
-3.622e-06
-3.42146e-06
-3.19279e-06
-2.93593e-06
-2.65185e-06
-2.34273e-06
-2.01215e-06
-1.66517e-06
-1.30829e-06
-9.49301e-07
-5.9697e-07
-2.60368e-07
5.14245e-08
3.37172e-07
-4.3259e-06
-4.36551e-06
-4.40365e-06
-4.43332e-06
-4.45441e-06
-4.46689e-06
-4.46996e-06
-4.46253e-06
-4.44339e-06
-4.4112e-06
-4.36447e-06
-4.30154e-06
-4.22056e-06
-4.11958e-06
-3.99663e-06
-3.84979e-06
-3.6773e-06
-3.47771e-06
-3.25005e-06
-2.99421e-06
-2.71107e-06
-2.40274e-06
-2.07271e-06
-1.72598e-06
-1.36897e-06
-1.00941e-06
-6.56042e-07
-3.17801e-07
-4.15507e-09
2.85614e-07
-4.41177e-06
-4.45004e-06
-4.48678e-06
-4.51523e-06
-4.53524e-06
-4.54678e-06
-4.54906e-06
-4.541e-06
-4.52142e-06
-4.48899e-06
-4.44224e-06
-4.3795e-06
-4.29896e-06
-4.19867e-06
-4.07665e-06
-3.93094e-06
-3.75974e-06
-3.56155e-06
-3.3354e-06
-3.08104e-06
-2.79927e-06
-2.49209e-06
-2.16287e-06
-1.81648e-06
-1.45926e-06
-1.09883e-06
-7.43881e-07
-4.03215e-07
-8.68302e-08
2.08954e-07
-4.52535e-06
-4.56184e-06
-4.59676e-06
-4.62359e-06
-4.64218e-06
-4.65248e-06
-4.65371e-06
-4.64483e-06
-4.62466e-06
-4.59191e-06
-4.5451e-06
-4.48261e-06
-4.40264e-06
-4.30323e-06
-4.1824e-06
-4.03816e-06
-3.86865e-06
-3.67231e-06
-3.4481e-06
-3.19566e-06
-2.91567e-06
-2.60996e-06
-2.28176e-06
-1.93579e-06
-1.57824e-06
-1.21663e-06
-8.59546e-07
-5.15706e-07
-1.95768e-07
1.08005e-07
-4.66582e-06
-4.70014e-06
-4.73281e-06
-4.75766e-06
-4.77451e-06
-4.78328e-06
-4.78322e-06
-4.77332e-06
-4.75241e-06
-4.71923e-06
-4.67234e-06
-4.61014e-06
-4.53083e-06
-4.43249e-06
-4.31308e-06
-4.17061e-06
-4.00314e-06
-3.80906e-06
-3.58719e-06
-3.33708e-06
-3.05921e-06
-2.75525e-06
-2.42825e-06
-2.08274e-06
-1.72474e-06
-1.36162e-06
-1.00185e-06
-6.54113e-07
-3.29868e-07
-1.61696e-08
-4.83222e-06
-4.86399e-06
-4.89403e-06
-4.91654e-06
-4.93134e-06
-4.9383e-06
-4.93672e-06
-4.92559e-06
-4.90379e-06
-4.87009e-06
-4.82308e-06
-4.76119e-06
-4.68264e-06
-4.5855e-06
-4.46774e-06
-4.32729e-06
-4.16219e-06
-3.97071e-06
-3.75155e-06
-3.50409e-06
-3.22865e-06
-2.92668e-06
-2.601e-06
-2.25594e-06
-1.89733e-06
-1.53233e-06
-1.16937e-06
-8.17061e-07
-4.87769e-07
-1.62284e-07
-5.02341e-06
-5.05229e-06
-5.07935e-06
-5.0992e-06
-5.11165e-06
-5.11656e-06
-5.11322e-06
-5.10068e-06
-5.07783e-06
-5.0435e-06
-4.99633e-06
-4.93476e-06
-4.85702e-06
-4.76121e-06
-4.64526e-06
-4.50706e-06
-4.34459e-06
-4.15599e-06
-3.93984e-06
-3.69532e-06
-3.42255e-06
-3.12273e-06
-2.79845e-06
-2.4538e-06
-2.09436e-06
-1.72713e-06
-1.36048e-06
-1.00292e-06
-6.67901e-07
-3.28859e-07
-5.23814e-06
-5.26383e-06
-5.28757e-06
-5.30448e-06
-5.31432e-06
-5.31692e-06
-5.31161e-06
-5.29746e-06
-5.27342e-06
-5.23837e-06
-5.19098e-06
-5.12971e-06
-5.05283e-06
-4.95842e-06
-4.84441e-06
-4.70866e-06
-4.54902e-06
-4.36353e-06
-4.15061e-06
-3.90925e-06
-3.63931e-06
-3.34175e-06
-3.01889e-06
-2.67452e-06
-2.31403e-06
-1.9442e-06
-1.57336e-06
-1.20989e-06
-8.68515e-07
-5.14255e-07
-5.47507e-06
-5.49729e-06
-5.51743e-06
-5.53113e-06
-5.53812e-06
-5.53819e-06
-5.5307e-06
-5.51476e-06
-5.48939e-06
-5.45351e-06
-5.40582e-06
-5.34482e-06
-5.2688e-06
-5.17585e-06
-5.06388e-06
-4.93069e-06
-4.77403e-06
-4.59182e-06
-4.38228e-06
-4.14422e-06
-3.87721e-06
-3.58194e-06
-3.26043e-06
-2.91621e-06
-2.55439e-06
-2.18156e-06
-1.80603e-06
-1.436e-06
-1.08772e-06
-7.16684e-07
-5.73275e-06
-5.75127e-06
-5.76757e-06
-5.77782e-06
-5.78173e-06
-5.77908e-06
-5.76922e-06
-5.75132e-06
-5.7245e-06
-5.68767e-06
-5.63959e-06
-5.5788e-06
-5.50363e-06
-5.41216e-06
-5.30228e-06
-5.17171e-06
-5.01811e-06
-4.83927e-06
-4.63321e-06
-4.39849e-06
-4.13443e-06
-3.84141e-06
-3.52113e-06
-3.17682e-06
-2.81335e-06
-2.43712e-06
-2.0564e-06
-1.67919e-06
-1.3235e-06
-9.34229e-07
-6.00972e-06
-6.02434e-06
-6.03659e-06
-6.04319e-06
-6.04383e-06
-6.03826e-06
-6.02586e-06
-6.00587e-06
-5.97744e-06
-5.93953e-06
-5.89096e-06
-5.83033e-06
-5.75596e-06
-5.66595e-06
-5.55815e-06
-5.4302e-06
-5.2797e-06
-5.10424e-06
-4.90166e-06
-4.67028e-06
-4.40908e-06
-4.11818e-06
-3.79893e-06
-3.45425e-06
-3.08878e-06
-2.70871e-06
-2.32228e-06
-1.93732e-06
-1.57377e-06
-1.16493e-06
-6.30447e-06
-6.31504e-06
-6.32305e-06
-6.32583e-06
-6.32304e-06
-6.31439e-06
-6.2993e-06
-6.27707e-06
-6.24688e-06
-6.20777e-06
-6.15862e-06
-6.09805e-06
-6.02441e-06
-5.93579e-06
-5.83001e-06
-5.70466e-06
-5.55719e-06
-5.38507e-06
-5.1859e-06
-4.95773e-06
-4.69925e-06
-4.41024e-06
-4.09174e-06
-3.74637e-06
-3.37849e-06
-2.99411e-06
-2.60148e-06
-2.2082e-06
-1.8364e-06
-1.40678e-06
-6.61551e-06
-6.6219e-06
-6.62554e-06
-6.62437e-06
-6.61801e-06
-6.60612e-06
-6.5882e-06
-6.56357e-06
-6.53149e-06
-6.49107e-06
-6.44122e-06
-6.3806e-06
-6.30758e-06
-6.22025e-06
-6.1164e-06
-5.99354e-06
-5.84901e-06
-5.68008e-06
-5.48416e-06
-5.25899e-06
-5.003e-06
-4.71559e-06
-4.39749e-06
-4.05101e-06
-3.68027e-06
-3.2911e-06
-2.89178e-06
-2.48965e-06
-2.10928e-06
-1.65782e-06
-6.94132e-06
-6.94345e-06
-6.94262e-06
-6.93738e-06
-6.92733e-06
-6.9121e-06
-6.8912e-06
-6.86406e-06
-6.82998e-06
-6.78812e-06
-6.73744e-06
-6.67663e-06
-6.6041e-06
-6.51793e-06
-6.41586e-06
-6.29534e-06
-6.15356e-06
-5.98763e-06
-5.79472e-06
-5.57227e-06
-5.31843e-06
-5.03223e-06
-4.7141e-06
-4.36605e-06
-3.99196e-06
-3.59749e-06
-3.19099e-06
-2.77952e-06
-2.39029e-06
-1.91607e-06
-7.28041e-06
-7.27822e-06
-7.27286e-06
-7.26348e-06
-7.24965e-06
-7.23097e-06
-7.20702e-06
-7.17725e-06
-7.14105e-06
-7.09762e-06
-7.04597e-06
-6.98484e-06
-6.91265e-06
-6.82747e-06
-6.727e-06
-6.60859e-06
-6.46933e-06
-6.30611e-06
-6.11589e-06
-5.89578e-06
-5.64365e-06
-5.35821e-06
-5.03955e-06
-4.6894e-06
-4.31142e-06
-3.91114e-06
-3.49698e-06
-3.07571e-06
-2.67738e-06
-2.17965e-06
-7.63141e-06
-7.62489e-06
-7.61494e-06
-7.60136e-06
-7.58369e-06
-7.56151e-06
-7.5344e-06
-7.50191e-06
-7.46347e-06
-7.41834e-06
-7.36558e-06
-7.30397e-06
-7.23193e-06
-7.14754e-06
-7.04843e-06
-6.93188e-06
-6.79482e-06
-6.63397e-06
-6.44601e-06
-6.22782e-06
-5.97689e-06
-5.69166e-06
-5.37189e-06
-5.01905e-06
-4.63662e-06
-4.22999e-06
-3.80771e-06
-3.37623e-06
-2.96862e-06
-2.44672e-06
-7.99299e-06
-7.98214e-06
-7.96759e-06
-7.94979e-06
-7.92823e-06
-7.90248e-06
-7.87215e-06
-7.83684e-06
-7.79604e-06
-7.74909e-06
-7.69508e-06
-7.63281e-06
-7.56074e-06
-7.47689e-06
-7.37888e-06
-7.26386e-06
-7.12863e-06
-6.96972e-06
-6.78354e-06
-6.56672e-06
-6.31642e-06
-6.03077e-06
-5.70925e-06
-5.35308e-06
-4.96559e-06
-4.55208e-06
-4.12123e-06
-3.67918e-06
-3.26215e-06
-2.71564e-06
-8.36388e-06
-8.34872e-06
-8.32959e-06
-8.30756e-06
-8.28209e-06
-8.25273e-06
-8.21912e-06
-8.18091e-06
-8.13766e-06
-8.08876e-06
-8.03334e-06
-7.97024e-06
-7.8979e-06
-7.81434e-06
-7.7171e-06
-7.60326e-06
-7.46944e-06
-7.31197e-06
-7.127e-06
-6.91094e-06
-6.6606e-06
-6.37383e-06
-6.04986e-06
-5.68968e-06
-5.2965e-06
-4.87557e-06
-4.43572e-06
-3.9828e-06
-3.55624e-06
-2.98489e-06
-8.7429e-06
-8.72347e-06
-8.6998e-06
-8.67354e-06
-8.64417e-06
-8.61117e-06
-8.57422e-06
-8.53305e-06
-8.48726e-06
-8.43629e-06
-8.37931e-06
-8.31517e-06
-8.24233e-06
-8.15877e-06
-8.06196e-06
-7.94887e-06
-7.81597e-06
-7.6594e-06
-7.47503e-06
-7.25901e-06
-7.00789e-06
-6.71925e-06
-6.39206e-06
-6.02715e-06
-5.62763e-06
-5.19874e-06
-4.74951e-06
-4.28546e-06
-3.84929e-06
-3.25317e-06
-9.12895e-06
-9.10531e-06
-9.07714e-06
-9.0467e-06
-9.01343e-06
-8.97677e-06
-8.93646e-06
-8.89226e-06
-8.84385e-06
-8.7907e-06
-8.732e-06
-8.66663e-06
-8.59303e-06
-8.50915e-06
-8.41238e-06
-8.29958e-06
-8.16707e-06
-8.01076e-06
-7.82631e-06
-7.60957e-06
-7.35688e-06
-7.06553e-06
-6.73431e-06
-6.3639e-06
-5.95738e-06
-5.52e-06
-5.06105e-06
-4.58571e-06
-4.13997e-06
-3.51955e-06
-9.52101e-06
-9.49323e-06
-9.46063e-06
-9.42604e-06
-9.3889e-06
-9.3486e-06
-9.30489e-06
-9.25763e-06
-9.20652e-06
-9.15106e-06
-9.09048e-06
-9.02367e-06
-8.94904e-06
-8.8645e-06
-8.76737e-06
-8.65436e-06
-8.52165e-06
-8.36491e-06
-8.17964e-06
-7.96137e-06
-7.70623e-06
-7.41129e-06
-7.07517e-06
-6.69848e-06
-6.28428e-06
-5.8379e-06
-5.36889e-06
-4.8822e-06
-4.42697e-06
-3.78338e-06
-9.91814e-06
-9.8863e-06
-9.84934e-06
-9.81068e-06
-9.76969e-06
-9.72575e-06
-9.67865e-06
-9.62829e-06
-9.5744e-06
-9.51653e-06
-9.45391e-06
-9.38543e-06
-9.30949e-06
-9.22393e-06
-9.12599e-06
-9.01224e-06
-8.87869e-06
-8.7208e-06
-8.53389e-06
-8.31321e-06
-8.0547e-06
-7.75525e-06
-7.41334e-06
-7.02955e-06
-6.60697e-06
-6.15108e-06
-5.67163e-06
-5.1736e-06
-4.70889e-06
-4.04357e-06
-1.03195e-05
-1.02837e-05
-1.02424e-05
-1.01997e-05
-1.0155e-05
-1.01074e-05
-1.00569e-05
-1.00034e-05
-9.94671e-06
-9.88631e-06
-9.82149e-06
-9.75112e-06
-9.67357e-06
-9.58661e-06
-9.48738e-06
-9.37232e-06
-9.23727e-06
-9.07745e-06
-8.88801e-06
-8.66401e-06
-8.40117e-06
-8.09623e-06
-7.74761e-06
-7.35588e-06
-6.92425e-06
-6.45832e-06
-5.96806e-06
-5.4586e-06
-4.98418e-06
-4.2987e-06
-1.07242e-05
-1.06845e-05
-1.06391e-05
-1.05925e-05
-1.05439e-05
-1.04928e-05
-1.04389e-05
-1.03823e-05
-1.03227e-05
-1.02596e-05
-1.01925e-05
-1.012e-05
-1.00405e-05
-9.95175e-06
-9.85073e-06
-9.73375e-06
-9.59647e-06
-9.43394e-06
-9.24106e-06
-9.01276e-06
-8.74458e-06
-8.43316e-06
-8.07689e-06
-7.67638e-06
-7.23498e-06
-6.75845e-06
-6.25705e-06
-5.73621e-06
-5.25141e-06
-4.54779e-06
-1.11316e-05
-1.10881e-05
-1.10386e-05
-1.09881e-05
-1.09359e-05
-1.08812e-05
-1.0824e-05
-1.07642e-05
-1.07016e-05
-1.06359e-05
-1.05662e-05
-1.04913e-05
-1.04096e-05
-1.03186e-05
-1.02153e-05
-1.00957e-05
-9.95547e-06
-9.7894e-06
-9.59214e-06
-9.35853e-06
-9.08398e-06
-8.76507e-06
-8.40019e-06
-7.99008e-06
-7.53822e-06
-7.05056e-06
-6.53752e-06
-6.00564e-06
-5.50972e-06
-4.79093e-06
-1.1541e-05
-1.14938e-05
-1.14403e-05
-1.1386e-05
-1.13301e-05
-1.1272e-05
-1.12114e-05
-1.11484e-05
-1.10829e-05
-1.10143e-05
-1.09419e-05
-1.08644e-05
-1.07801e-05
-1.06865e-05
-1.05803e-05
-1.04576e-05
-1.03135e-05
-1.0143e-05
-9.94039e-06
-9.70044e-06
-9.41847e-06
-9.09104e-06
-8.71662e-06
-8.29608e-06
-7.83303e-06
-7.33372e-06
-6.8085e-06
-6.26592e-06
-5.7572e-06
-5.02713e-06
-1.19516e-05
-1.19008e-05
-1.18434e-05
-1.17854e-05
-1.1726e-05
-1.16644e-05
-1.16005e-05
-1.15344e-05
-1.14657e-05
-1.13942e-05
-1.1319e-05
-1.12387e-05
-1.11514e-05
-1.10547e-05
-1.09451e-05
-1.08184e-05
-1.06698e-05
-1.04939e-05
-1.0285e-05
-1.00377e-05
-9.74722e-06
-9.41028e-06
-9.02542e-06
-8.59367e-06
-8.11874e-06
-7.60713e-06
-7.06885e-06
-6.51464e-06
-5.98455e-06
-5.24365e-06
-1.2363e-05
-1.23086e-05
-1.22474e-05
-1.21858e-05
-1.21229e-05
-1.20579e-05
-1.19907e-05
-1.19214e-05
-1.18497e-05
-1.17751e-05
-1.16968e-05
-1.16134e-05
-1.15229e-05
-1.14226e-05
-1.13089e-05
-1.11777e-05
-1.10237e-05
-1.08414e-05
-1.06252e-05
-1.03694e-05
-1.00695e-05
-9.72204e-06
-9.32589e-06
-8.88227e-06
-8.39508e-06
-7.87095e-06
-7.31909e-06
-6.75071e-06
-6.17877e-06
-5.42363e-06
-1.27743e-05
-1.27165e-05
-1.26516e-05
-1.25864e-05
-1.25201e-05
-1.24518e-05
-1.23814e-05
-1.23088e-05
-1.2234e-05
-1.21562e-05
-1.20747e-05
-1.19879e-05
-1.18938e-05
-1.17894e-05
-1.16712e-05
-1.15345e-05
-1.13743e-05
-1.11848e-05
-1.09602e-05
-1.06949e-05
-1.03845e-05
-1.00256e-05
-9.61743e-06
-9.16143e-06
-8.66194e-06
-8.12611e-06
-7.56242e-06
-6.98244e-06
-6.36422e-06
-5.65786e-06
-1.3185e-05
-1.31238e-05
-1.30553e-05
-1.29866e-05
-1.2917e-05
-1.28455e-05
-1.27718e-05
-1.26961e-05
-1.2618e-05
-1.2537e-05
-1.24521e-05
-1.23617e-05
-1.22635e-05
-1.21546e-05
-1.2031e-05
-1.18882e-05
-1.17209e-05
-1.15232e-05
-1.12892e-05
-1.10135e-05
-1.06915e-05
-1.03203e-05
-9.89937e-06
-9.43055e-06
-8.91875e-06
-8.37211e-06
-7.79949e-06
-7.21893e-06
-6.60746e-06
-6.20525e-06
-1.35944e-05
-1.353e-05
-1.34579e-05
-1.33858e-05
-1.3313e-05
-1.32382e-05
-1.31614e-05
-1.30825e-05
-1.30012e-05
-1.29168e-05
-1.28283e-05
-1.27339e-05
-1.26313e-05
-1.25173e-05
-1.23878e-05
-1.22382e-05
-1.20629e-05
-1.1856e-05
-1.16116e-05
-1.13243e-05
-1.09898e-05
-1.06054e-05
-1.01709e-05
-9.68875e-06
-9.16427e-06
-8.60633e-06
-8.02414e-06
-7.43895e-06
-6.82785e-06
-6.48447e-06
-1.40019e-05
-1.39342e-05
-1.38587e-05
-1.37834e-05
-1.37073e-05
-1.36294e-05
-1.35495e-05
-1.34674e-05
-1.33828e-05
-1.32949e-05
-1.32026e-05
-1.31039e-05
-1.29965e-05
-1.28768e-05
-1.27408e-05
-1.25835e-05
-1.23993e-05
-1.21823e-05
-1.19265e-05
-1.16267e-05
-1.12787e-05
-1.08803e-05
-1.04315e-05
-9.9353e-06
-9.3977e-06
-8.82788e-06
-8.23527e-06
-7.64178e-06
-7.02147e-06
-6.65928e-06
-1.44067e-05
-1.43359e-05
-1.4257e-05
-1.41785e-05
-1.40993e-05
-1.40184e-05
-1.39353e-05
-1.385e-05
-1.37621e-05
-1.36706e-05
-1.35742e-05
-1.3471e-05
-1.33583e-05
-1.32324e-05
-1.30892e-05
-1.29235e-05
-1.27295e-05
-1.25014e-05
-1.22332e-05
-1.19198e-05
-1.15574e-05
-1.11441e-05
-1.06804e-05
-1.01697e-05
-9.61853e-06
-9.03629e-06
-8.43247e-06
-7.82852e-06
-7.19848e-06
-6.81287e-06
-1.4808e-05
-1.47342e-05
-1.4652e-05
-1.45704e-05
-1.44883e-05
-1.44043e-05
-1.43182e-05
-1.42297e-05
-1.41383e-05
-1.4043e-05
-1.39424e-05
-1.38343e-05
-1.37159e-05
-1.35833e-05
-1.34322e-05
-1.32572e-05
-1.30526e-05
-1.28124e-05
-1.25309e-05
-1.2203e-05
-1.18254e-05
-1.13964e-05
-1.09172e-05
-1.03915e-05
-9.82643e-06
-9.23145e-06
-8.61595e-06
-8.0008e-06
-7.36263e-06
-6.95537e-06
-1.52051e-05
-1.51284e-05
-1.5043e-05
-1.49584e-05
-1.48733e-05
-1.47864e-05
-1.46972e-05
-1.46055e-05
-1.45107e-05
-1.44115e-05
-1.43064e-05
-1.41931e-05
-1.40685e-05
-1.39286e-05
-1.37689e-05
-1.35839e-05
-1.33678e-05
-1.31147e-05
-1.28188e-05
-1.24756e-05
-1.2082e-05
-1.16367e-05
-1.11413e-05
-1.06004e-05
-1.00212e-05
-9.41339e-06
-8.78621e-06
-8.16018e-06
-7.51553e-06
-7.08779e-06
-1.55972e-05
-1.55176e-05
-1.54291e-05
-1.53415e-05
-1.52536e-05
-1.51638e-05
-1.50717e-05
-1.49768e-05
-1.48784e-05
-1.47751e-05
-1.46653e-05
-1.45464e-05
-1.44151e-05
-1.42674e-05
-1.40984e-05
-1.39026e-05
-1.36742e-05
-1.34072e-05
-1.30962e-05
-1.27368e-05
-1.23264e-05
-1.18642e-05
-1.13525e-05
-1.07962e-05
-1.02028e-05
-9.58222e-06
-8.94376e-06
-8.30792e-06
-7.65804e-06
-7.21005e-06
-1.59832e-05
-1.59008e-05
-1.58094e-05
-1.5719e-05
-1.56284e-05
-1.55358e-05
-1.54406e-05
-1.53425e-05
-1.52404e-05
-1.5133e-05
-1.50182e-05
-1.48933e-05
-1.47549e-05
-1.45988e-05
-1.44198e-05
-1.42124e-05
-1.39708e-05
-1.36891e-05
-1.33622e-05
-1.2986e-05
-1.25581e-05
-1.20786e-05
-1.15502e-05
-1.09784e-05
-1.03711e-05
-9.73804e-06
-9.08899e-06
-8.44461e-06
-7.79006e-06
-7.32205e-06
-1.63623e-05
-1.62772e-05
-1.61829e-05
-1.60898e-05
-1.59965e-05
-1.59012e-05
-1.58031e-05
-1.57017e-05
-1.55959e-05
-1.54841e-05
-1.53641e-05
-1.52329e-05
-1.50869e-05
-1.49217e-05
-1.47321e-05
-1.45124e-05
-1.42568e-05
-1.39597e-05
-1.3616e-05
-1.32223e-05
-1.27765e-05
-1.22794e-05
-1.17342e-05
-1.11469e-05
-1.05259e-05
-9.88087e-06
-9.22215e-06
-8.57012e-06
-7.91061e-06
-7.4244e-06
-1.67333e-05
-1.66456e-05
-1.65486e-05
-1.6453e-05
-1.63571e-05
-1.62591e-05
-1.61582e-05
-1.60535e-05
-1.59439e-05
-1.58275e-05
-1.57019e-05
-1.55641e-05
-1.541e-05
-1.52352e-05
-1.50342e-05
-1.48015e-05
-1.45312e-05
-1.42179e-05
-1.38569e-05
-1.3445e-05
-1.2981e-05
-1.2466e-05
-1.1904e-05
-1.13015e-05
-1.0667e-05
-1.00106e-05
-9.34333e-06
-8.68398e-06
-8.01912e-06
-7.51764e-06
-1.70953e-05
-1.70051e-05
-1.69055e-05
-1.68074e-05
-1.67091e-05
-1.66085e-05
-1.65047e-05
-1.63967e-05
-1.62832e-05
-1.6162e-05
-1.60307e-05
-1.58857e-05
-1.57232e-05
-1.55381e-05
-1.53252e-05
-1.50788e-05
-1.47931e-05
-1.44629e-05
-1.4084e-05
-1.36535e-05
-1.31709e-05
-1.2638e-05
-1.20593e-05
-1.14418e-05
-1.07943e-05
-1.0127e-05
-9.45207e-06
-8.78628e-06
-8.11599e-06
-7.60121e-06
-1.74469e-05
-1.73545e-05
-1.72524e-05
-1.71519e-05
-1.70513e-05
-1.69482e-05
-1.68415e-05
-1.67302e-05
-1.66127e-05
-1.64866e-05
-1.63492e-05
-1.61968e-05
-1.60252e-05
-1.58294e-05
-1.5604e-05
-1.53432e-05
-1.50414e-05
-1.46938e-05
-1.42964e-05
-1.38471e-05
-1.33457e-05
-1.27948e-05
-1.21996e-05
-1.15675e-05
-1.09074e-05
-1.02297e-05
-9.54802e-06
-8.87695e-06
-8.20122e-06
-7.6746e-06
-1.77872e-05
-1.76925e-05
-1.75881e-05
-1.74854e-05
-1.73826e-05
-1.7277e-05
-1.71676e-05
-1.70529e-05
-1.69312e-05
-1.68e-05
-1.66562e-05
-1.64961e-05
-1.6315e-05
-1.61079e-05
-1.58693e-05
-1.55936e-05
-1.52752e-05
-1.49097e-05
-1.44935e-05
-1.40249e-05
-1.35047e-05
-1.29361e-05
-1.23247e-05
-1.16783e-05
-1.10062e-05
-1.03188e-05
-9.6309e-06
-8.95531e-06
-8.27469e-06
-7.7374e-06
-1.81147e-05
-1.80179e-05
-1.79113e-05
-1.78067e-05
-1.77017e-05
-1.75938e-05
-1.74816e-05
-1.73636e-05
-1.72377e-05
-1.71011e-05
-1.69507e-05
-1.67823e-05
-1.65913e-05
-1.63725e-05
-1.61202e-05
-1.58289e-05
-1.54935e-05
-1.51096e-05
-1.46742e-05
-1.41864e-05
-1.36475e-05
-1.30613e-05
-1.2434e-05
-1.1774e-05
-1.10906e-05
-1.03945e-05
-9.70049e-06
-9.02023e-06
-8.33632e-06
-7.78931e-06
-1.84281e-05
-1.83295e-05
-1.82209e-05
-1.81143e-05
-1.80074e-05
-1.78973e-05
-1.77824e-05
-1.76609e-05
-1.75306e-05
-1.73886e-05
-1.72313e-05
-1.70544e-05
-1.6853e-05
-1.66219e-05
-1.63554e-05
-1.60481e-05
-1.56952e-05
-1.52925e-05
-1.48379e-05
-1.43308e-05
-1.37733e-05
-1.31699e-05
-1.25273e-05
-1.18542e-05
-1.116e-05
-1.04566e-05
-9.75686e-06
-9.07147e-06
-8.38577e-06
-7.82996e-06
-1.87262e-05
-1.86259e-05
-1.85155e-05
-1.84072e-05
-1.82984e-05
-1.81862e-05
-1.80685e-05
-1.79436e-05
-1.78089e-05
-1.76612e-05
-1.74967e-05
-1.73109e-05
-1.70987e-05
-1.68549e-05
-1.65738e-05
-1.62501e-05
-1.58793e-05
-1.54578e-05
-1.49837e-05
-1.44574e-05
-1.38816e-05
-1.32614e-05
-1.2604e-05
-1.19185e-05
-1.12142e-05
-1.05044e-05
-9.80013e-06
-9.10928e-06
-8.42264e-06
-7.85893e-06
-1.90075e-05
-1.89057e-05
-1.87937e-05
-1.86838e-05
-1.85734e-05
-1.8459e-05
-1.83388e-05
-1.82104e-05
-1.80711e-05
-1.79176e-05
-1.77456e-05
-1.75506e-05
-1.73273e-05
-1.70703e-05
-1.67742e-05
-1.64338e-05
-1.60448e-05
-1.56043e-05
-1.51109e-05
-1.45656e-05
-1.39719e-05
-1.33355e-05
-1.2664e-05
-1.19666e-05
-1.12528e-05
-1.05373e-05
-9.8298e-06
-9.13366e-06
-8.44667e-06
-7.87582e-06
-1.92707e-05
-1.91675e-05
-1.90541e-05
-1.89429e-05
-1.88309e-05
-1.87146e-05
-1.85917e-05
-1.84599e-05
-1.8316e-05
-1.81564e-05
-1.79767e-05
-1.77722e-05
-1.75374e-05
-1.7267e-05
-1.69555e-05
-1.65981e-05
-1.61908e-05
-1.57312e-05
-1.52186e-05
-1.46548e-05
-1.40437e-05
-1.33916e-05
-1.27068e-05
-1.19986e-05
-1.12765e-05
-1.05549e-05
-9.8443e-06
-9.14474e-06
-8.45776e-06
-7.88035e-06
-1.95142e-05
-1.94099e-05
-1.92954e-05
-1.91829e-05
-1.90696e-05
-1.89514e-05
-1.8826e-05
-1.86907e-05
-1.85421e-05
-1.83762e-05
-1.81887e-05
-1.79743e-05
-1.77278e-05
-1.74436e-05
-1.71165e-05
-1.67419e-05
-1.63163e-05
-1.58377e-05
-1.53062e-05
-1.47242e-05
-1.40963e-05
-1.34294e-05
-1.27321e-05
-1.20139e-05
-1.1285e-05
-1.05575e-05
-9.84348e-06
-9.1421e-06
-8.45568e-06
-7.87232e-06
-1.97367e-05
-1.96315e-05
-1.9516e-05
-1.94026e-05
-1.9288e-05
-1.91682e-05
-1.90403e-05
-1.89014e-05
-1.8748e-05
-1.85758e-05
-1.83801e-05
-1.81557e-05
-1.78972e-05
-1.7599e-05
-1.72561e-05
-1.68643e-05
-1.64204e-05
-1.5923e-05
-1.5373e-05
-1.47734e-05
-1.41294e-05
-1.34483e-05
-1.27393e-05
-1.2012e-05
-1.12774e-05
-1.05454e-05
-9.82768e-06
-9.12545e-06
-8.44023e-06
-7.85156e-06
-1.99367e-05
-1.98309e-05
-1.97147e-05
-1.96005e-05
-1.94848e-05
-1.93634e-05
-1.92331e-05
-1.90907e-05
-1.89324e-05
-1.87537e-05
-1.85498e-05
-1.83151e-05
-1.80443e-05
-1.7732e-05
-1.73733e-05
-1.69641e-05
-1.65021e-05
-1.59863e-05
-1.54183e-05
-1.48016e-05
-1.41423e-05
-1.34481e-05
-1.27283e-05
-1.19926e-05
-1.1253e-05
-1.05186e-05
-9.79705e-06
-9.09467e-06
-8.41127e-06
-7.81794e-06
-2.01129e-05
-2.00066e-05
-1.98899e-05
-1.97752e-05
-1.96586e-05
-1.95357e-05
-1.9403e-05
-1.92571e-05
-1.90939e-05
-1.89086e-05
-1.86962e-05
-1.84512e-05
-1.8168e-05
-1.78415e-05
-1.74668e-05
-1.70406e-05
-1.65606e-05
-1.60269e-05
-1.54414e-05
-1.48085e-05
-1.41348e-05
-1.34284e-05
-1.26989e-05
-1.19565e-05
-1.12111e-05
-1.04751e-05
-9.75183e-06
-9.04976e-06
-8.36868e-06
-7.77137e-06
-2.02636e-05
-2.01572e-05
-2.00403e-05
-1.99253e-05
-1.9808e-05
-1.96837e-05
-1.95487e-05
-1.93993e-05
-1.92311e-05
-1.90392e-05
-1.88183e-05
-1.85628e-05
-1.82671e-05
-1.79263e-05
-1.75358e-05
-1.70926e-05
-1.65951e-05
-1.60439e-05
-1.54418e-05
-1.47936e-05
-1.41063e-05
-1.33888e-05
-1.26509e-05
-1.19032e-05
-1.11527e-05
-1.04148e-05
-9.69145e-06
-8.99053e-06
-8.31237e-06
-7.71172e-06
-2.03877e-05
-2.02813e-05
-2.01645e-05
-2.00493e-05
-1.99315e-05
-1.9806e-05
-1.96688e-05
-1.9516e-05
-1.93428e-05
-1.91442e-05
-1.89147e-05
-1.86486e-05
-1.83405e-05
-1.79854e-05
-1.75793e-05
-1.71194e-05
-1.66049e-05
-1.60369e-05
-1.54188e-05
-1.47562e-05
-1.40566e-05
-1.3329e-05
-1.25838e-05
-1.18313e-05
-1.10777e-05
-1.03383e-05
-9.61582e-06
-8.91683e-06
-8.24222e-06
-7.63887e-06
-2.04836e-05
-2.03776e-05
-2.02611e-05
-2.01461e-05
-2.0028e-05
-1.99014e-05
-1.97621e-05
-1.96058e-05
-1.94277e-05
-1.92223e-05
-1.89842e-05
-1.87075e-05
-1.8387e-05
-1.80178e-05
-1.75962e-05
-1.71202e-05
-1.65892e-05
-1.60052e-05
-1.53721e-05
-1.46961e-05
-1.39852e-05
-1.32488e-05
-1.24975e-05
-1.17402e-05
-1.09859e-05
-1.02459e-05
-9.52493e-06
-8.82856e-06
-8.15815e-06
-7.55269e-06
-2.05501e-05
-2.04447e-05
-2.03289e-05
-2.02143e-05
-2.0096e-05
-1.99684e-05
-1.98272e-05
-1.96675e-05
-1.94845e-05
-1.92724e-05
-1.90256e-05
-1.87384e-05
-1.84056e-05
-1.80225e-05
-1.75859e-05
-1.70942e-05
-1.65475e-05
-1.59483e-05
-1.53012e-05
-1.4613e-05
-1.3892e-05
-1.31481e-05
-1.2392e-05
-1.16306e-05
-1.08764e-05
-1.01373e-05
-9.4186e-06
-8.72564e-06
-8.06011e-06
-7.45317e-06
-2.0586e-05
-2.04815e-05
-2.03665e-05
-2.02525e-05
-2.01343e-05
-2.0006e-05
-1.98628e-05
-1.96999e-05
-1.9512e-05
-1.92932e-05
-1.90379e-05
-1.87403e-05
-1.83953e-05
-1.79987e-05
-1.75476e-05
-1.70407e-05
-1.64791e-05
-1.58656e-05
-1.52057e-05
-1.45064e-05
-1.37766e-05
-1.30265e-05
-1.2267e-05
-1.15027e-05
-1.07489e-05
-1.0012e-05
-9.29673e-06
-8.60798e-06
-7.94804e-06
-7.34031e-06
-2.059e-05
-2.04867e-05
-2.03729e-05
-2.02598e-05
-2.01418e-05
-2.00129e-05
-1.9868e-05
-1.97019e-05
-1.95091e-05
-1.92838e-05
-1.90201e-05
-1.87123e-05
-1.83554e-05
-1.79456e-05
-1.74805e-05
-1.69593e-05
-1.63835e-05
-1.57569e-05
-1.50852e-05
-1.43762e-05
-1.3639e-05
-1.28841e-05
-1.21213e-05
-1.13564e-05
-1.06042e-05
-9.8703e-06
-9.15929e-06
-8.47555e-06
-7.82188e-06
-7.21413e-06
-2.0561e-05
-2.04592e-05
-2.03469e-05
-2.02349e-05
-2.01174e-05
-1.9988e-05
-1.98415e-05
-1.96724e-05
-1.94749e-05
-1.92431e-05
-1.89711e-05
-1.86533e-05
-1.8285e-05
-1.78626e-05
-1.7384e-05
-1.68493e-05
-1.62604e-05
-1.56217e-05
-1.49396e-05
-1.42221e-05
-1.34789e-05
-1.27206e-05
-1.19548e-05
-1.11915e-05
-1.04423e-05
-9.71219e-06
-9.00625e-06
-8.32835e-06
-7.68166e-06
-7.07461e-06
-2.04981e-05
-2.03979e-05
-2.02874e-05
-2.01768e-05
-2.006e-05
-1.99304e-05
-1.97824e-05
-1.96103e-05
-1.94084e-05
-1.91703e-05
-1.88903e-05
-1.85628e-05
-1.81834e-05
-1.77489e-05
-1.72577e-05
-1.67103e-05
-1.61094e-05
-1.54599e-05
-1.47685e-05
-1.4044e-05
-1.32962e-05
-1.25356e-05
-1.17686e-05
-1.1008e-05
-1.02627e-05
-9.53749e-06
-8.83758e-06
-8.16636e-06
-7.5274e-06
-6.92177e-06
6.10302e-07
8.18042e-07
9.72802e-07
1.07733e-06
1.13794e-06
1.16184e-06
1.15636e-06
1.12843e-06
1.08424e-06
1.02896e-06
9.66776e-07
9.00921e-07
8.33829e-07
7.6727e-07
7.02491e-07
6.40343e-07
5.81382e-07
5.25949e-07
4.74222e-07
4.26256e-07
3.82019e-07
3.41413e-07
3.043e-07
2.70513e-07
2.3987e-07
2.12176e-07
1.87231e-07
1.64834e-07
1.44786e-07
1.26894e-07
1.10969e-07
9.68354e-08
8.4323e-08
7.32741e-08
6.35414e-08
5.49878e-08
4.74887e-08
4.09284e-08
3.52016e-08
3.02137e-08
2.5875e-08
2.21107e-08
1.88491e-08
1.60298e-08
1.35948e-08
1.14963e-08
9.69107e-09
8.13793e-09
6.81043e-09
5.66308e-09
4.69711e-09
3.8413e-09
3.15192e-09
2.49661e-09
2.02233e-09
1.50617e-09
1.14731e-09
7.95982e-10
2.80838e-10
5.79629e-10
5.85151e-07
7.97219e-07
9.54792e-07
1.06196e-06
1.12494e-06
1.15092e-06
1.14724e-06
1.12086e-06
1.07798e-06
1.0238e-06
9.62532e-07
8.9744e-07
8.30979e-07
7.6494e-07
7.00589e-07
6.38793e-07
5.80121e-07
5.24923e-07
4.73387e-07
4.25577e-07
3.81467e-07
3.40966e-07
3.03937e-07
2.7022e-07
2.39633e-07
2.11984e-07
1.87077e-07
1.6471e-07
1.44687e-07
1.26814e-07
1.10905e-07
9.67843e-08
8.4282e-08
7.32418e-08
6.35155e-08
5.49676e-08
4.74727e-08
4.09154e-08
3.51916e-08
3.02058e-08
2.58692e-08
2.21054e-08
1.88457e-08
1.60265e-08
1.35925e-08
1.1494e-08
9.68969e-09
8.13677e-09
6.80988e-09
5.66278e-09
4.69461e-09
3.84219e-09
3.15019e-09
2.49695e-09
2.02143e-09
1.50595e-09
1.14735e-09
7.96729e-10
2.82033e-10
5.78997e-10
5.35038e-07
7.55721e-07
9.18872e-07
1.03129e-06
1.09898e-06
1.12911e-06
1.12903e-06
1.10573e-06
1.06546e-06
1.01348e-06
9.54046e-07
8.90479e-07
8.25279e-07
7.6028e-07
6.96785e-07
6.35692e-07
5.77595e-07
5.22868e-07
4.71716e-07
4.24219e-07
3.80364e-07
3.4007e-07
3.03211e-07
2.69632e-07
2.39157e-07
2.116e-07
1.86767e-07
1.64461e-07
1.44487e-07
1.26653e-07
1.10777e-07
9.66812e-08
8.41997e-08
7.31761e-08
6.34634e-08
5.49263e-08
4.74397e-08
4.08894e-08
3.51706e-08
3.01895e-08
2.58566e-08
2.20952e-08
1.88381e-08
1.60194e-08
1.35879e-08
1.14894e-08
9.68686e-09
8.13417e-09
6.80766e-09
5.66164e-09
4.69213e-09
3.8426e-09
3.14788e-09
2.49706e-09
2.02046e-09
1.50539e-09
1.14669e-09
7.97028e-10
2.84347e-10
5.76928e-10
4.60431e-07
6.93918e-07
8.65304e-07
9.85498e-07
1.0602e-06
1.09651e-06
1.10178e-06
1.08308e-06
1.04671e-06
9.98018e-07
9.4133e-07
8.80043e-07
8.16731e-07
7.5329e-07
6.91078e-07
6.31038e-07
5.73805e-07
5.19784e-07
4.69208e-07
4.2218e-07
3.78707e-07
3.38725e-07
3.02121e-07
2.68749e-07
2.38443e-07
2.11023e-07
1.86302e-07
1.64087e-07
1.44186e-07
1.26411e-07
1.10583e-07
9.65262e-08
8.40758e-08
7.30772e-08
6.33849e-08
5.4864e-08
4.73901e-08
4.08501e-08
3.51392e-08
3.01649e-08
2.58374e-08
2.20796e-08
1.88264e-08
1.60091e-08
1.35806e-08
1.14826e-08
9.68234e-09
8.13012e-09
6.80438e-09
5.65953e-09
4.689e-09
3.84228e-09
3.14521e-09
2.49675e-09
2.01912e-09
1.50475e-09
1.14579e-09
7.9736e-10
2.87847e-10
5.73879e-10
3.62029e-07
6.12342e-07
7.94478e-07
9.24865e-07
1.00881e-06
1.05325e-06
1.0656e-06
1.05298e-06
1.02178e-06
9.77443e-07
9.24399e-07
8.66142e-07
8.0534e-07
7.43972e-07
6.83468e-07
6.24832e-07
5.6875e-07
5.15669e-07
4.65861e-07
4.19459e-07
3.76496e-07
3.36931e-07
3.00665e-07
2.6757e-07
2.37489e-07
2.10253e-07
1.85681e-07
1.63587e-07
1.43784e-07
1.26089e-07
1.10324e-07
9.63192e-08
8.39104e-08
7.29452e-08
6.32799e-08
5.47807e-08
4.73237e-08
4.07976e-08
3.50972e-08
3.01319e-08
2.58114e-08
2.20588e-08
1.88104e-08
1.59955e-08
1.35706e-08
1.14738e-08
9.67613e-09
8.12463e-09
6.80005e-09
5.65642e-09
4.68526e-09
3.84118e-09
3.1422e-09
2.49599e-09
2.01741e-09
1.50406e-09
1.14465e-09
7.97688e-10
2.9233e-10
5.70102e-10
2.40745e-07
5.11688e-07
7.06919e-07
8.49747e-07
9.45058e-07
9.99519e-07
1.02061e-06
1.01552e-06
9.90724e-07
9.5179e-07
9.03273e-07
8.48787e-07
7.91112e-07
7.32329e-07
6.73955e-07
6.17071e-07
5.62426e-07
5.10521e-07
4.61672e-07
4.16054e-07
3.7373e-07
3.34684e-07
2.98844e-07
2.66094e-07
2.36296e-07
2.09289e-07
1.84904e-07
1.62961e-07
1.43281e-07
1.25685e-07
1.10001e-07
9.60601e-08
8.37034e-08
7.278e-08
6.31486e-08
5.46763e-08
4.72407e-08
4.07317e-08
3.50447e-08
3.00905e-08
2.57788e-08
2.20328e-08
1.87902e-08
1.59786e-08
1.3558e-08
1.14627e-08
9.66825e-09
8.1177e-09
6.79468e-09
5.65231e-09
4.68095e-09
3.83928e-09
3.13891e-09
2.49476e-09
2.01533e-09
1.5033e-09
1.14324e-09
7.97975e-10
2.97541e-10
5.65903e-10
9.76926e-08
3.92797e-07
6.03292e-07
7.60581e-07
8.6928e-07
9.35545e-07
9.66965e-07
9.70789e-07
9.53603e-07
9.21101e-07
8.7798e-07
8.27994e-07
7.74055e-07
7.18362e-07
6.62539e-07
6.07754e-07
5.54831e-07
5.04337e-07
4.5664e-07
4.11962e-07
3.70405e-07
3.31985e-07
2.96654e-07
2.64321e-07
2.34861e-07
2.08131e-07
1.8397e-07
1.62209e-07
1.42676e-07
1.252e-07
1.09612e-07
9.57489e-08
8.34548e-08
7.25816e-08
6.29908e-08
5.45509e-08
4.71409e-08
4.06526e-08
3.49818e-08
3.00407e-08
2.57396e-08
2.20015e-08
1.87658e-08
1.59584e-08
1.35428e-08
1.14496e-08
9.65869e-09
8.10933e-09
6.78827e-09
5.64719e-09
4.67609e-09
3.83654e-09
3.13533e-09
2.49305e-09
2.01289e-09
1.50249e-09
1.14155e-09
7.98182e-10
3.03195e-10
5.61619e-10
-6.58513e-08
2.5664e-07
4.84421e-07
6.57874e-07
7.81857e-07
8.61603e-07
9.04852e-07
9.18926e-07
9.10504e-07
8.85428e-07
8.48551e-07
8.0378e-07
7.54177e-07
7.02076e-07
6.49219e-07
5.96878e-07
5.45962e-07
4.97113e-07
4.50761e-07
4.0718e-07
3.66519e-07
3.2883e-07
2.94096e-07
2.62249e-07
2.33186e-07
2.06778e-07
1.82879e-07
1.61331e-07
1.4197e-07
1.24633e-07
1.09158e-07
9.53855e-08
8.31645e-08
7.23501e-08
6.28066e-08
5.44044e-08
4.70245e-08
4.05602e-08
3.49083e-08
2.99825e-08
2.56937e-08
2.19649e-08
1.87371e-08
1.5935e-08
1.35249e-08
1.14344e-08
9.64745e-09
8.09954e-09
6.78081e-09
5.64108e-09
4.67067e-09
3.83296e-09
3.13149e-09
2.49086e-09
2.0101e-09
1.50161e-09
1.13958e-09
7.9827e-10
3.08988e-10
5.57598e-10
-2.48481e-07
1.04343e-07
3.51263e-07
5.42196e-07
6.83216e-07
7.7801e-07
8.34489e-07
8.60071e-07
8.61521e-07
8.4483e-07
8.1502e-07
7.76165e-07
7.31487e-07
6.83472e-07
6.33994e-07
5.84439e-07
5.35815e-07
4.88844e-07
4.4403e-07
4.01705e-07
3.62069e-07