/*--------------------------------*- C++ -*----------------------------------*\
| =========                 |                                                 |
| \\      /  F ield         | foam-extend: Open Source CFD                    |
|  \\    /   O peration     | Version:     4.0                                |
|   \\  /    A nd           | Web:         http://www.foam-extend.org         |
|    \\/     M anipulation  |                                                 |
\*---------------------------------------------------------------------------*/
FoamFile
{
    version     2.0;
    format      ascii;
    class       surfaceScalarField;
    location    "15";
    object      phi;
}
// * * * * * * * * * * * * * * * * * * * * * * * * * * * * * * * * * * * * * //

dimensions      [0 3 -1 0 0 0 0];

internalField   nonuniform List<scalar> 
71520
(
-2.18243e-10
2.17696e-10
5.47406e-13
-8.44663e-10
6.2503e-10
1.38932e-12
-1.86757e-09
1.02093e-09
1.9751e-12
-3.26371e-09
1.39392e-09
2.22521e-12
-4.9962e-09
1.73044e-09
2.04882e-12
-7.01225e-09
2.01471e-09
1.34338e-12
-9.24083e-09
2.22859e-09
-5.42944e-15
-1.15901e-08
2.35139e-09
-2.12329e-12
-1.39448e-08
2.35983e-09
-5.14679e-12
-1.61635e-08
2.22792e-09
-9.22184e-12
-1.80759e-08
1.92694e-09
-1.45014e-11
-1.94804e-08
1.4256e-09
-2.11416e-11
-2.01414e-08
6.90327e-10
-2.92952e-11
-1.97884e-08
-3.13932e-10
-3.91107e-11
-1.81122e-08
-1.6254e-09
-5.07196e-11
-1.47664e-08
-3.28163e-09
-6.42294e-11
-9.36729e-09
-5.3194e-09
-7.9706e-11
-1.49709e-09
-7.77306e-09
-9.71353e-11
9.29255e-09
-1.06733e-08
-1.16389e-10
2.34712e-08
-1.40412e-08
-1.37456e-10
4.15221e-08
-1.78909e-08
-1.60004e-10
6.39279e-08
-2.22222e-08
-1.83615e-10
9.11542e-08
-2.70185e-08
-2.07754e-10
1.2363e-07
-3.22438e-08
-2.31736e-10
1.61724e-07
-3.784e-08
-2.54723e-10
2.05726e-07
-4.37259e-08
-2.75746e-10
2.55818e-07
-4.97977e-08
-2.93733e-10
3.12058e-07
-5.59332e-08
-3.07561e-10
3.7436e-07
-6.19855e-08
-3.16104e-10
-6.78361e-08
4.42514e-07
-3.18381e-10
-2.15945e-10
4.33641e-10
-8.35544e-10
1.24463e-09
-1.84693e-09
2.03231e-09
-3.22667e-09
2.77367e-09
-4.93776e-09
3.44152e-09
-6.92729e-09
4.00424e-09
-9.12413e-09
4.42543e-09
-1.14364e-08
4.66365e-09
-1.37488e-08
4.67225e-09
-1.592e-08
4.39911e-09
-1.77798e-08
3.78674e-09
-1.91267e-08
2.77248e-09
-1.97255e-08
1.28911e-09
-1.93049e-08
-7.34461e-10
-1.7557e-08
-3.37329e-09
-1.41358e-08
-6.70289e-09
-8.65814e-09
-1.0797e-08
-7.06551e-10
-1.57247e-08
1.01637e-08
-2.15435e-08
2.44235e-08
-2.8301e-08
4.25538e-08
-3.60212e-08
6.50351e-08
-4.47036e-08
9.23307e-08
-5.43141e-08
1.24867e-07
-6.47796e-08
1.63009e-07
-7.59828e-08
2.07044e-07
-8.77603e-08
2.57149e-07
-9.9903e-08
3.13381e-07
-1.12165e-07
3.75648e-07
-1.24252e-07
-1.3593e-07
4.43742e-07
-2.11376e-10
6.45017e-10
-8.17407e-10
1.85066e-09
-1.80585e-09
3.02075e-09
-3.15296e-09
4.12078e-09
-4.82142e-09
5.10998e-09
-6.75811e-09
5.94093e-09
-8.89172e-09
6.55904e-09
-1.11303e-08
6.9022e-09
-1.33584e-08
6.90042e-09
-1.54349e-08
6.47561e-09
-1.71898e-08
5.54157e-09
-1.84217e-08
4.0044e-09
-1.88958e-08
1.76326e-09
-1.83414e-08
-1.28892e-09
-1.64509e-08
-5.26378e-09
-1.28795e-08
-1.02742e-08
-7.24599e-09
-1.64306e-08
8.64983e-10
-2.38356e-08
1.18988e-08
-3.25773e-08
2.63207e-08
-4.27229e-08
4.46091e-08
-5.43096e-08
6.72407e-08
-6.73352e-08
9.46739e-08
-8.17473e-08
1.27329e-07
-9.74348e-08
1.65567e-07
-1.14221e-07
2.09665e-07
-1.31859e-07
2.59797e-07
-1.50035e-07
3.16009e-07
-1.68378e-07
3.78205e-07
-1.86447e-07
-2.03903e-07
4.46178e-07
-2.04601e-10
8.49618e-10
-7.90503e-10
2.43656e-09
-1.74489e-09
3.97514e-09
-3.04353e-09
5.41942e-09
-4.64867e-09
6.71512e-09
-6.50684e-09
7.79909e-09
-8.54647e-09
8.59866e-09
-1.06754e-08
9.03113e-09
-1.27783e-08
9.0033e-09
-1.47139e-08
8.4112e-09
-1.63125e-08
7.14015e-09
-1.73732e-08
5.06513e-09
-1.76616e-08
2.05165e-09
-1.69077e-08
-2.04281e-09
-1.48051e-08
-7.36638e-09
-1.10105e-08
-1.40688e-08
-5.14456e-09
-2.22965e-08
3.2055e-09
-3.21857e-08
1.44807e-08
-4.38526e-08
2.91434e-08
-5.73855e-08
4.76668e-08
-7.2833e-08
7.05214e-08
-9.01898e-08
9.81585e-08
-1.09384e-07
1.3099e-07
-1.30267e-07
1.69368e-07
-1.52598e-07
2.13559e-07
-1.7605e-07
2.63727e-07
-2.00202e-07
3.19906e-07
-2.24557e-07
3.81992e-07
-2.48532e-07
-2.71692e-07
4.4978e-07
-1.95714e-10
1.04533e-09
-7.55193e-10
2.99604e-09
-1.66487e-09
4.88482e-09
-2.89982e-09
6.65437e-09
-4.42172e-09
8.23702e-09
-6.17662e-09
9.55399e-09
-8.09258e-09
1.05146e-08
-1.00772e-08
1.10157e-08
-1.20151e-08
1.09412e-08
-1.37651e-08
1.01612e-08
-1.51577e-08
8.53281e-09
-1.59926e-08
5.90001e-09
-1.60359e-08
2.09499e-09
-1.50189e-08
-3.05984e-09
-1.26366e-08
-9.74873e-09
-8.54754e-09
-1.81579e-08
-2.37514e-09
-2.84689e-08
6.28957e-09
-4.08504e-08
1.78834e-08
-5.54464e-08
3.28633e-08
-7.23654e-08
5.16958e-08
-9.16655e-08
7.48436e-08
-1.13338e-07
1.02748e-07
-1.37289e-07
1.35811e-07
-1.63329e-07
1.7437e-07
-1.91158e-07
2.18681e-07
-2.2036e-07
2.68889e-07
-2.50411e-07
3.25018e-07
-2.80686e-07
3.86952e-07
-3.10467e-07
-3.39232e-07
4.54492e-07
-1.84836e-10
1.23017e-09
-7.11948e-10
3.52315e-09
-1.56681e-09
5.73968e-09
-2.72365e-09
7.81121e-09
-4.14339e-09
9.65677e-09
-5.77147e-09
1.11821e-08
-7.53545e-09
1.22786e-08
-9.34266e-09
1.2823e-08
-1.10776e-08
1.26761e-08
-1.25992e-08
1.16828e-08
-1.37382e-08
9.67183e-09
-1.42948e-08
6.45658e-09
-1.4036e-08
1.83627e-09
-1.26946e-08
-4.40129e-09
-9.96732e-09
-1.2476e-08
-5.51541e-09
-2.26098e-08
1.03448e-09
-3.50188e-08
1.00869e-08
-4.99028e-08
2.20732e-08
-6.74327e-08
3.74436e-08
-8.77358e-08
5.66564e-08
-1.10878e-07
8.01639e-08
-1.36845e-07
1.08396e-07
-1.65521e-07
1.4174e-07
-1.96673e-07
1.80519e-07
-2.29937e-07
2.2497e-07
-2.64811e-07
2.75219e-07
-3.0066e-07
3.31276e-07
-3.36743e-07
3.93017e-07
-3.72207e-07
-4.06453e-07
4.60238e-07
-1.72113e-10
1.40228e-09
-6.61334e-10
4.01238e-09
-1.45198e-09
6.53033e-09
-2.51723e-09
8.87646e-09
-3.8171e-09
1.09566e-08
-5.29624e-09
1.26612e-08
-6.88164e-09
1.3864e-08
-8.48025e-09
1.44216e-08
-9.97635e-09
1.41722e-08
-1.12289e-08
1.29353e-08
-1.2069e-08
1.0512e-08
-1.22974e-08
6.68499e-09
-1.16824e-08
1.22122e-09
-9.95815e-09
-6.12554e-09
-6.82384e-09
-1.56103e-08
-1.94366e-09
-2.74899e-08
5.05153e-09
-4.2014e-08
1.45612e-08
-5.94125e-08
2.70101e-08
-7.98816e-08
4.28404e-08
-1.03566e-07
6.25002e-08
-1.30538e-07
8.64301e-08
-1.60775e-07
1.15045e-07
-1.94136e-07
1.48717e-07
-2.30344e-07
1.87748e-07
-2.68968e-07
2.32353e-07
-3.09416e-07
2.8264e-07
-3.50947e-07
3.38603e-07
-3.92706e-07
4.00102e-07
-4.33706e-07
-4.73285e-07
4.66934e-07
-1.57713e-10
1.55999e-09
-6.03998e-10
4.45866e-09
-1.32181e-09
7.24814e-09
-2.28308e-09
9.83773e-09
-3.44673e-09
1.21203e-08
-4.7565e-09
1.3971e-08
-6.13862e-09
1.52461e-08
-7.49958e-09
1.57825e-08
-8.72334e-09
1.53959e-08
-9.66888e-09
1.38809e-08
-1.01676e-08
1.10107e-08
-1.0021e-08
6.53842e-09
-8.99854e-09
1.98711e-10
-6.83649e-09
-8.28759e-09
-3.23652e-09
-1.92103e-08
2.1335e-09
-3.286e-08
9.6379e-09
-4.95184e-08
1.96702e-08
-6.94448e-08
3.26477e-08
-9.28591e-08
4.90028e-08
-1.19921e-07
6.91721e-08
-1.50707e-07
9.35819e-08
-1.85185e-07
1.22631e-07
-2.23185e-07
1.56669e-07
-2.64383e-07
1.95978e-07
-3.08276e-07
2.40747e-07
-3.54186e-07
2.91067e-07
-4.01267e-07
3.46909e-07
-4.48548e-07
4.08117e-07
-4.94914e-07
-5.39652e-07
4.74485e-07
-1.41818e-10
1.70181e-09
-5.40648e-10
4.85749e-09
-1.17787e-09
7.88536e-09
-2.02396e-09
1.06838e-08
-3.03657e-09
1.31329e-08
-4.15833e-09
1.50927e-08
-5.3146e-09
1.64024e-08
-6.41123e-09
1.68792e-08
-7.33177e-09
1.63165e-08
-7.93515e-09
1.44843e-08
-8.0531e-09
1.11286e-08
-7.4879e-09
5.97322e-09
-6.01072e-09
-1.27847e-09
-3.35946e-09
-1.09389e-08
7.60836e-10
-2.33306e-08
6.67808e-09
-3.87772e-08
1.47513e-08
-5.75917e-08
2.53674e-08
-8.00608e-08
3.89346e-08
-1.06426e-07
5.58745e-08
-1.36861e-07
7.66103e-08
-1.71443e-07
1.01552e-07
-2.10127e-07
1.31079e-07
-2.52712e-07
1.65517e-07
-2.98821e-07
2.05123e-07
-3.47882e-07
2.50065e-07
-3.99128e-07
3.00405e-07
-4.51607e-07
3.56096e-07
-5.04239e-07
4.1696e-07
-5.55779e-07
-6.05481e-07
4.8279e-07
-1.24623e-10
1.82644e-09
-4.72038e-10
5.20491e-09
-1.02183e-09
8.43515e-09
-1.74282e-09
1.14048e-08
-2.59116e-09
1.39812e-08
-3.50822e-09
1.60098e-08
-4.41834e-09
1.73125e-08
-5.2265e-09
1.76873e-08
-5.81581e-09
1.69058e-08
-6.04506e-09
1.47135e-08
-5.74624e-09
1.08298e-08
-4.7226e-09
4.94958e-09
-2.74671e-09
-3.25436e-09
4.40844e-10
-1.41264e-08
5.13165e-09
-2.80214e-08
1.1649e-08
-4.52946e-08
2.03462e-08
-6.62888e-08
3.1602e-08
-9.13166e-08
4.58148e-08
-1.20639e-07
6.3394e-08
-1.5444e-07
8.47475e-08
-1.92797e-07
1.10267e-07
-2.35646e-07
1.40308e-07
-2.82753e-07
1.75173e-07
-3.33686e-07
2.15093e-07
-3.87802e-07
2.60208e-07
-4.44243e-07
3.10554e-07
-5.01953e-07
3.66058e-07
-5.59743e-07
4.26524e-07
-6.16245e-07
-6.70697e-07
4.9174e-07
-1.06329e-10
1.93276e-09
-3.98946e-10
5.49752e-09
-8.5542e-10
8.89162e-09
-1.44271e-09
1.19921e-08
-2.11526e-09
1.46538e-08
-2.81294e-09
1.67075e-08
-3.45893e-09
1.79585e-08
-3.95719e-09
1.81856e-08
-4.19024e-09
1.71388e-08
-4.01656e-09
1.45398e-08
-3.26855e-09
1.00818e-08
-1.75037e-09
3.43139e-09
7.6371e-10
-5.76844e-09
4.53031e-09
-1.7893e-08
9.8373e-09
-3.33284e-08
1.7003e-08
-5.24603e-08
2.63739e-08
-7.56597e-08
3.83201e-08
-1.03263e-07
5.32289e-08
-1.35548e-07
7.14957e-08
-1.72707e-07
9.3512e-08
-2.14813e-07
1.19648e-07
-2.61782e-07
1.50234e-07
-3.1334e-07
1.85548e-07
-3.69e-07
2.25791e-07
-4.28045e-07
2.71075e-07
-4.89526e-07
3.21405e-07
-5.52283e-07
3.76683e-07
-6.15022e-07
4.36694e-07
-6.76256e-07
-7.35224e-07
5.0122e-07
-8.7133e-11
2.0199e-09
-3.22143e-10
5.73253e-09
-6.80371e-10
9.24985e-09
-1.12669e-09
1.24384e-08
-1.61362e-09
1.51407e-08
-2.07934e-09
1.71732e-08
-2.44561e-09
1.83248e-08
-2.61531e-09
1.83553e-08
-2.4701e-09
1.69936e-08
-1.86817e-09
1.39379e-08
-6.42249e-10
8.8559e-09
1.40252e-09
1.38662e-09
4.48993e-09
-8.85584e-09
8.87376e-09
-2.22768e-08
1.48379e-08
-3.92925e-08
2.26951e-08
-6.03175e-08
3.27842e-08
-8.57488e-08
4.54657e-08
-1.15944e-07
6.11148e-08
-1.51197e-07
8.01115e-08
-1.91704e-07
1.02828e-07
-2.3753e-07
1.29612e-07
-2.88565e-07
1.60768e-07
-3.44496e-07
1.96546e-07
-4.04778e-07
2.37115e-07
-4.68615e-07
2.82555e-07
-5.34966e-07
3.32843e-07
-6.0257e-07
3.87853e-07
-6.70032e-07
4.4735e-07
-7.35752e-07
-7.98986e-07
5.11113e-07
-6.72254e-11
2.08712e-09
-2.42376e-10
5.90768e-09
-4.9836e-10
9.50583e-09
-7.97739e-10
1.27378e-08
-1.09092e-09
1.54339e-08
-1.31417e-09
1.73964e-08
-1.38767e-09
1.83983e-08
-1.21288e-09
1.81805e-08
-6.70492e-10
1.64512e-08
3.81532e-10
1.28859e-08
2.11024e-09
7.12719e-09
4.70941e-09
-1.21255e-09
8.40094e-09
-1.25474e-08
1.34356e-08
-2.73115e-08
2.00928e-08
-4.59497e-08
2.86792e-08
-6.89039e-08
3.95255e-08
-9.6595e-08
5.29814e-08
-1.294e-07
6.94087e-08
-1.67624e-07
8.91709e-08
-2.11466e-07
1.12619e-07
-2.60978e-07
1.40075e-07
-3.16022e-07
1.71819e-07
-3.7624e-07
2.08067e-07
-4.41026e-07
2.48958e-07
-5.09506e-07
2.94538e-07
-5.80546e-07
3.44751e-07
-6.52783e-07
3.99447e-07
-7.24729e-07
4.5837e-07
-7.94675e-07
-8.61912e-07
5.21296e-07
-4.67715e-11
2.13389e-09
-1.60326e-10
6.02124e-09
-3.10948e-10
9.65645e-09
-4.58704e-10
1.28856e-08
-5.51675e-10
1.55269e-08
-5.2408e-10
1.73688e-08
-2.94075e-10
1.81683e-08
2.38445e-10
1.7648e-08
1.19364e-09
1.5496e-08
2.71406e-09
1.13655e-08
4.96655e-09
4.87471e-09
8.1439e-09
-4.3899e-09
1.2466e-08
-1.68695e-08
1.81803e-08
-3.30258e-08
2.55615e-08
-5.33309e-08
3.49094e-08
-7.82518e-08
4.65459e-08
-1.08231e-07
6.08091e-08
-1.43663e-07
7.8046e-08
-1.84861e-07
9.86023e-08
-2.32022e-07
1.22805e-07
-2.85181e-07
1.50952e-07
-3.44168e-07
1.83293e-07
-4.0858e-07
2.20011e-07
-4.77745e-07
2.61212e-07
-5.50706e-07
3.06906e-07
-6.2624e-07
3.57007e-07
-7.02884e-07
4.11339e-07
-7.79061e-07
4.69626e-07
-8.52962e-07
-9.2393e-07
5.31644e-07
-2.59671e-11
2.15986e-09
-7.67469e-11
6.07202e-09
-1.19822e-10
9.69953e-09
-1.12559e-10
1.28783e-08
-5.06263e-13
1.54148e-08
2.84541e-10
1.70838e-08
8.26572e-10
1.76262e-08
1.72718e-09
1.67473e-08
3.10776e-09
1.41155e-08
5.11147e-09
9.36176e-09
7.90506e-09
2.08111e-09
1.16803e-08
-8.16512e-09
1.66549e-08
-2.18441e-08
2.30729e-08
-3.94438e-08
3.12036e-08
-6.14617e-08
4.13399e-08
-8.8388e-08
5.37937e-08
-1.20685e-07
6.88908e-08
-1.58761e-07
8.69622e-08
-2.02933e-07
1.08334e-07
-2.53394e-07
1.33309e-07
-3.10156e-07
1.62156e-07
-3.73016e-07
1.95095e-07
-4.41519e-07
2.32275e-07
-5.14925e-07
2.73765e-07
-5.92197e-07
3.19542e-07
-6.72016e-07
3.69487e-07
-7.52829e-07
4.234e-07
-8.32974e-07
4.8099e-07
-9.10552e-07
-9.8497e-07
5.4203e-07
-5.03819e-12
2.1649e-09
7.53338e-12
6.05945e-09
7.32995e-11
9.63376e-09
2.37814e-10
1.27138e-08
5.58356e-10
1.50943e-08
1.1057e-09
1.65365e-08
1.96591e-09
1.6766e-08
3.24246e-09
1.54708e-08
5.0581e-09
1.22998e-08
7.55674e-09
6.86312e-09
1.09051e-08
-1.26724e-09
1.52938e-08
-1.25539e-08
2.09385e-08
-2.74887e-08
2.80793e-08
-4.65847e-08
3.69802e-08
-7.03625e-08
4.79259e-08
-9.93338e-08
6.12182e-08
-1.33978e-07
7.71693e-08
-1.74712e-07
9.60932e-08
-2.21857e-07
1.18294e-07
-2.75595e-07
1.44049e-07
-3.35911e-07
1.73599e-07
-4.02566e-07
2.07129e-07
-4.75049e-07
2.44755e-07
-5.5255e-07
2.86507e-07
-6.33949e-07
3.32327e-07
-7.17837e-07
3.82067e-07
-8.02569e-07
4.35503e-07
-8.8641e-07
4.92329e-07
-9.67377e-07
-1.04496e-06
5.5232e-07
1.59363e-11
2.14896e-09
9.21609e-11
5.98322e-09
2.67431e-10
9.45849e-09
5.90459e-10
1.23908e-08
1.12148e-09
1.45633e-08
1.93395e-09
1.5724e-08
3.11637e-09
1.55836e-08
4.77424e-09
1.38129e-08
7.03183e-09
1.00422e-08
1.00339e-08
3.86105e-09
1.39471e-08
-5.18045e-09
1.89611e-08
-1.75678e-08
2.5289e-08
-3.38167e-08
3.31672e-08
-5.44628e-08
4.28534e-08
-8.00488e-08
5.46243e-08
-1.11105e-07
6.87702e-08
-1.48124e-07
8.55888e-08
-1.9153e-07
1.05376e-07
-2.41644e-07
1.28413e-07
-2.98631e-07
1.54949e-07
-3.62447e-07
1.85195e-07
-4.32812e-07
2.19301e-07
-5.09156e-07
2.57346e-07
-5.90595e-07
2.99324e-07
-6.75927e-07
3.45142e-07
-7.63654e-07
3.94621e-07
-8.52048e-07
4.47516e-07
-9.39305e-07
5.03511e-07
-1.02337e-06
-1.10383e-06
5.62383e-07
3.68261e-11
2.11214e-09
1.76569e-10
5.84348e-09
4.61361e-10
9.1737e-09
9.43175e-10
1.19089e-08
1.68537e-09
1.38211e-08
2.76428e-09
1.46451e-08
4.27106e-09
1.40768e-08
6.31339e-09
1.17706e-08
9.01718e-09
7.33844e-09
1.25282e-08
3.50047e-10
1.7013e-08
-9.66522e-09
2.26601e-08
-2.3215e-08
2.96804e-08
-4.08369e-08
3.83057e-08
-6.30881e-08
4.87876e-08
-9.05307e-08
6.13936e-08
-1.23711e-07
7.64022e-08
-1.63132e-07
9.40954e-08
-2.09224e-07
1.1475e-07
-2.62298e-07
1.38621e-07
-3.22502e-07
1.65931e-07
-3.89758e-07
1.96858e-07
-4.63739e-07
2.31517e-07
-5.43814e-07
2.69947e-07
-6.29026e-07
3.12107e-07
-7.18087e-07
3.57868e-07
-8.09415e-07
4.07024e-07
-9.01204e-07
4.59312e-07
-9.91593e-07
5.14408e-07
-1.07847e-06
-1.16151e-06
5.72086e-07
5.75157e-11
2.05462e-09
2.60322e-10
5.64067e-09
6.54037e-10
8.77998e-09
1.29406e-09
1.12689e-08
2.24703e-09
1.28681e-08
3.5923e-09
1.32998e-08
5.42388e-09
1.22453e-08
7.85178e-09
9.3427e-09
1.10037e-08
4.18656e-09
1.50262e-08
-3.67247e-09
2.00861e-08
-1.47251e-08
2.63708e-08
-2.94997e-08
3.40884e-08
-4.85545e-08
4.34663e-08
-7.2466e-08
5.47491e-08
-1.01813e-07
6.81948e-08
-1.37156e-07
8.4069e-08
-1.79006e-07
1.02637e-07
-2.27792e-07
1.24155e-07
-2.83816e-07
1.48852e-07
-3.47198e-07
1.76921e-07
-4.17827e-07
2.08505e-07
-4.95323e-07
2.43683e-07
-5.78992e-07
2.82457e-07
-6.67799e-07
3.24745e-07
-7.60376e-07
3.70389e-07
-8.55059e-07
4.19154e-07
-9.4997e-07
4.70764e-07
-1.0432e-06
5.24891e-07
-1.1326e-06
-1.21792e-06
5.813e-07
7.79115e-11
1.97671e-09
3.43033e-10
5.37555e-09
8.44584e-10
8.27843e-09
1.64151e-09
1.0472e-08
2.80387e-09
1.17057e-08
4.41424e-09
1.16894e-08
6.56952e-09
1.009e-08
9.38218e-09
6.53004e-09
1.29818e-08
5.86937e-10
1.7516e-08
-8.20665e-09
2.31516e-08
-2.03608e-08
3.00749e-08
-3.6423e-08
3.84909e-08
-5.69705e-08
4.86224e-08
-8.25975e-08
6.07065e-08
-1.13898e-07
7.49911e-08
-1.51441e-07
9.17281e-08
-1.95743e-07
1.11165e-07
-2.47229e-07
1.33536e-07
-3.06187e-07
1.59042e-07
-3.72704e-07
1.87845e-07
-4.4663e-07
2.20055e-07
-5.27533e-07
2.55711e-07
-6.14648e-07
2.94776e-07
-7.06865e-07
3.37134e-07
-8.02733e-07
3.82591e-07
-9.00516e-07
4.30893e-07
-9.98272e-07
4.81751e-07
-1.09406e-06
5.34838e-07
-1.18568e-06
-1.27299e-06
5.89906e-07
9.79475e-11
1.87876e-09
4.24424e-10
5.04907e-09
1.03234e-09
7.67052e-09
1.98429e-09
9.52005e-09
3.35381e-09
1.03362e-08
5.22693e-09
9.81631e-09
7.70349e-09
7.61342e-09
1.08985e-08
3.33501e-09
1.49434e-08
-3.45798e-09
1.99871e-08
-1.32503e-08
2.61963e-08
-2.657e-08
3.37559e-08
-4.39826e-08
4.28679e-08
-6.60826e-08
5.37499e-08
-9.34794e-08
6.66311e-08
-1.26779e-07
8.17484e-08
-1.66558e-07
9.93393e-08
-2.13334e-07
1.19633e-07
-2.67523e-07
1.42838e-07
-3.29392e-07
1.69129e-07
-3.98994e-07
1.98636e-07
-4.76137e-07
2.3143e-07
-5.60327e-07
2.67514e-07
-6.50732e-07
3.06811e-07
-7.46162e-07
3.49169e-07
-8.45091e-07
3.94365e-07
-9.45712e-07
4.42125e-07
-1.04603e-06
4.92154e-07
-1.14409e-06
5.44132e-07
-1.23766e-06
-1.32665e-06
5.97796e-07
1.1757e-10
1.76119e-09
5.04269e-10
4.66237e-09
1.21677e-09
6.95802e-09
2.32137e-09
8.41544e-09
3.89521e-09
8.76236e-09
6.0278e-09
7.68373e-09
8.82204e-09
4.81918e-09
1.23956e-08
-2.38533e-10
1.68818e-08
-7.94415e-09
2.24305e-08
-1.8799e-08
2.92086e-08
-3.3348e-08
3.73994e-08
-5.21734e-08
4.72015e-08
-7.58848e-08
5.88268e-08
-1.05105e-07
7.24964e-08
-1.40448e-07
8.84352e-08
-1.82497e-07
1.06865e-07
-2.31764e-07
1.27997e-07
-2.88654e-07
1.52011e-07
-3.53407e-07
1.79055e-07
-4.26038e-07
2.09225e-07
-5.06307e-07
2.42555e-07
-5.93658e-07
2.79008e-07
-6.87185e-07
3.1847e-07
-7.85624e-07
3.60753e-07
-8.87374e-07
4.05606e-07
-9.90565e-07
4.52741e-07
-1.09317e-06
5.01857e-07
-1.1932e-06
5.52656e-07
-1.28846e-06
-1.37886e-06
6.04867e-07
1.36746e-10
1.62445e-09
5.8241e-10
4.21671e-09
1.39746e-09
6.14297e-09
2.65199e-09
7.16091e-09
4.42681e-09
6.98755e-09
6.81487e-09
5.29566e-09
9.92225e-09
1.71181e-09
1.38692e-08
-4.18545e-09
1.87909e-08
-1.28659e-08
2.48385e-08
-2.48466e-08
3.21785e-08
-4.06881e-08
4.09926e-08
-6.09875e-08
5.14758e-08
-8.63679e-08
6.38336e-08
-1.17463e-07
7.82783e-08
-1.54893e-07
9.50224e-08
-1.99241e-07
1.14271e-07
-2.51013e-07
1.36214e-07
-3.10597e-07
1.61007e-07
-3.78199e-07
1.88764e-07
-4.53796e-07
2.19549e-07
-5.37092e-07
2.53359e-07
-6.27467e-07
2.90116e-07
-7.23942e-07
3.29668e-07
-8.25176e-07
3.71793e-07
-9.29499e-07
4.16215e-07
-1.03499e-06
4.62634e-07
-1.13959e-06
5.10746e-07
-1.24132e-06
5.60299e-07
-1.33801e-06
-1.42957e-06
6.11005e-07
1.5546e-10
1.46899e-09
6.58768e-10
3.7134e-09
1.57421e-09
5.22752e-09
2.97565e-09
5.75947e-09
4.94766e-09
5.01553e-09
7.58664e-09
2.65668e-09
1.10018e-08
-1.70333e-09
1.53159e-08
-8.49959e-09
2.06663e-08
-1.82163e-08
2.72048e-08
-3.13851e-08
3.50977e-08
-4.8581e-08
4.45247e-08
-7.04144e-08
5.56766e-08
-9.75198e-08
6.87525e-08
-1.30538e-07
8.3955e-08
-1.70095e-07
1.01483e-07
-2.1677e-07
1.21526e-07
-2.71056e-07
1.44249e-07
-3.3332e-07
1.6978e-07
-4.0373e-07
1.98205e-07
-4.82221e-07
2.2955e-07
-5.68438e-07
2.63775e-07
-6.61692e-07
3.00762e-07
-7.6093e-07
3.40323e-07
-8.64737e-07
3.82203e-07
-9.71379e-07
4.26103e-07
-1.07889e-06
4.71709e-07
-1.18519e-06
5.18723e-07
-1.28833e-06
5.66956e-07
-1.38625e-06
-1.47871e-06
6.16098e-07
1.73708e-10
1.29528e-09
7.33307e-10
3.1538e-09
1.74689e-09
4.21394e-09
3.29205e-09
4.21431e-09
5.45716e-09
2.85043e-09
8.34204e-09
-2.28194e-10
1.20589e-08
-5.42022e-09
1.67332e-08
-1.31739e-08
2.25041e-08
-2.39871e-08
2.95241e-08
-3.84051e-08
3.79589e-08
-5.70159e-08
4.7986e-08
-8.04414e-08
5.97916e-08
-1.09325e-07
7.35678e-08
-1.44315e-07
8.95066e-08
-1.86034e-07
1.07793e-07
-2.35056e-07
1.28598e-07
-2.91861e-07
1.52063e-07
-3.56785e-07
1.78289e-07
-4.29956e-07
2.07328e-07
-5.1126e-07
2.39171e-07
-6.00281e-07
2.7374e-07
-6.9626e-07
3.10879e-07
-7.98069e-07
3.50363e-07
-9.04221e-07
3.91906e-07
-1.01292e-06
4.35188e-07
-1.12217e-06
4.79882e-07
-1.22989e-06
5.25701e-07
-1.33415e-06
5.72535e-07
-1.43308e-06
-1.52622e-06
6.20041e-07
1.91492e-10
1.10379e-09
8.0601e-10
2.53929e-09
1.91542e-09
3.10453e-09
3.6011e-09
2.52863e-09
5.95501e-09
4.96516e-10
9.08037e-09
-3.35356e-09
1.30925e-08
-9.43232e-09
1.81192e-08
-1.82007e-08
2.43013e-08
-3.01692e-08
3.1792e-08
-4.58958e-08
4.07561e-08
-6.598e-08
5.13683e-08
-9.10536e-08
6.38099e-08
-1.21767e-07
7.82652e-08
-1.5877e-07
9.49152e-08
-2.02684e-07
1.1393e-07
-2.54071e-07
1.35461e-07
-3.13392e-07
1.59624e-07
-3.80948e-07
1.86493e-07
-4.56824e-07
2.16087e-07
-5.40854e-07
2.4836e-07
-6.32555e-07
2.83196e-07
-7.31096e-07
3.20402e-07
-8.35275e-07
3.59719e-07
-9.43537e-07
4.00834e-07
-1.05404e-06
4.43401e-07
-1.16474e-06
4.87087e-07
-1.27357e-06
5.31608e-07
-1.37867e-06
5.76955e-07
-1.47843e-06
-1.57198e-06
6.22721e-07
2.08838e-10
8.94949e-10
8.76945e-10
1.87118e-09
2.07986e-09
1.90162e-09
3.90272e-09
7.05759e-10
6.441e-09
-2.04176e-09
9.80123e-09
-6.71379e-09
1.41016e-08
-1.37327e-08
1.94724e-08
-2.35714e-08
2.60557e-08
-3.67525e-08
3.4005e-08
-5.38452e-08
4.34841e-08
-7.5459e-08
5.46643e-08
-1.02234e-07
6.77217e-08
-1.34825e-07
8.2832e-08
-1.7388e-07
1.00164e-07
-2.20016e-07
1.19873e-07
-2.7378e-07
1.42089e-07
-3.35608e-07
1.66901e-07
-4.0576e-07
1.94356e-07
-4.84279e-07
2.24438e-07
-5.70936e-07
2.57068e-07
-6.65184e-07
2.92089e-07
-7.66117e-07
3.29274e-07
-8.7246e-07
3.68332e-07
-9.82595e-07
4.08924e-07
-1.09463e-06
4.50683e-07
-1.2065e-06
4.93269e-07
-1.31616e-06
5.36386e-07
-1.42179e-06
5.80141e-07
-1.52218e-06
-1.61583e-06
6.23991e-07
2.25756e-10
6.69194e-10
9.46145e-10
1.15079e-09
2.24033e-09
6.07439e-10
4.19704e-09
-1.25095e-09
6.91517e-09
-4.7599e-09
1.05045e-08
-1.03031e-08
1.50859e-08
-1.83141e-08
2.07917e-08
-2.92772e-08
2.77653e-08
-4.37261e-08
3.61602e-08
-6.22401e-08
4.61384e-08
-8.54372e-08
5.78678e-08
-1.13963e-07
7.15182e-08
-1.48475e-07
8.72561e-08
-1.89618e-07
1.05238e-07
-2.37998e-07
1.25602e-07
-2.94144e-07
1.48456e-07
-3.58462e-07
1.73864e-07
-4.31169e-07
2.01842e-07
-5.12256e-07
2.32342e-07
-6.01436e-07
2.65247e-07
-6.9809e-07
3.00367e-07
-8.01237e-07
3.37441e-07
-9.09534e-07
3.76149e-07
-1.0213e-06
4.16129e-07
-1.13461e-06
4.56999e-07
-1.24737e-06
4.98404e-07
-1.35756e-06
5.4001e-07
-1.46339e-06
5.81991e-07
-1.56417e-06
-1.6575e-06
6.23655e-07
2.42272e-10
4.26922e-10
1.01368e-09
3.79379e-10
2.39693e-09
-7.75804e-10
4.48416e-09
-3.33819e-09
7.37761e-09
-7.65334e-09
1.119e-08
-1.41155e-08
1.60448e-08
-2.31689e-08
2.20763e-08
-3.53087e-08
2.94286e-08
-5.10784e-08
3.82548e-08
-7.10664e-08
4.8715e-08
-9.58974e-08
6.09727e-08
-1.26221e-07
7.5191e-08
-1.62693e-07
9.15266e-08
-2.05954e-07
1.10122e-07
-2.56594e-07
1.31099e-07
-3.1512e-07
1.5454e-07
-3.81903e-07
1.80485e-07
-4.57113e-07
2.08918e-07
-5.40689e-07
2.3976e-07
-6.32277e-07
2.72857e-07
-7.31187e-07
3.07985e-07
-8.36366e-07
3.44854e-07
-9.46403e-07
3.83122e-07
-1.05957e-06
4.22411e-07
-1.1739e-06
4.62336e-07
-1.28729e-06
5.02532e-07
-1.39776e-06
5.42599e-07
-1.50346e-06
5.82464e-07
-1.60403e-06
-1.6964e-06
6.21366e-07
2.58415e-10
1.68507e-10
1.07965e-09
-4.41853e-10
2.54978e-09
-2.24594e-09
4.76426e-09
-5.55267e-09
7.82845e-09
-1.07175e-08
1.18579e-08
-1.81449e-08
1.69783e-08
-2.82894e-08
2.33254e-08
-4.16558e-08
3.10441e-08
-5.87971e-08
4.02865e-08
-8.03088e-08
5.121e-08
-1.06821e-07
6.39735e-08
-1.38984e-07
7.87325e-08
-1.77452e-07
9.56329e-08
-2.22854e-07
1.14803e-07
-2.75765e-07
1.36345e-07
-3.36663e-07
1.60319e-07
-4.05877e-07
1.86737e-07
-4.83531e-07
2.15553e-07
-5.69506e-07
2.46654e-07
-6.63378e-07
2.79855e-07
-7.64387e-07
3.14898e-07
-8.71409e-07
3.51467e-07
-9.82972e-07
3.89203e-07
-1.09731e-06
4.27726e-07
-1.21242e-06
4.66678e-07
-1.32624e-06
5.05737e-07
-1.43682e-06
5.44532e-07
-1.54225e-06
5.82344e-07
-1.64184e-06
-1.73049e-06
6.16436e-07
2.74207e-10
-1.057e-10
1.14412e-09
-1.31177e-09
2.69903e-09
-3.80085e-09
5.03752e-09
-7.89116e-09
8.26784e-09
-1.39478e-08
1.25081e-08
-2.23851e-08
1.7886e-08
-3.36673e-08
2.45385e-08
-4.83084e-08
3.26106e-08
-6.68691e-08
4.2253e-08
-8.99512e-08
5.362e-08
-1.18188e-07
6.6865e-08
-1.52229e-07
8.21352e-08
-1.92722e-07
9.95649e-08
-2.40284e-07
1.19267e-07
-2.95467e-07
1.41325e-07
-3.5872e-07
1.65772e-07
-4.30324e-07
1.92595e-07
-5.10354e-07
2.21717e-07
-5.98628e-07
2.52993e-07
-6.94654e-07
2.86203e-07
-7.97597e-07
3.21062e-07
-9.06268e-07
3.57232e-07
-1.01914e-06
3.94336e-07
-1.13441e-06
4.32005e-07
-1.25009e-06
4.69921e-07
-1.36416e-06
5.07866e-07
-1.47476e-06
5.4583e-07
-1.58022e-06
5.83911e-07
-1.67992e-06
-1.77237e-06
6.2579e-07
2.89665e-10
-3.95364e-10
1.20714e-09
-2.22925e-09
2.84476e-09
-5.43846e-09
5.304e-09
-1.03504e-08
8.69579e-09
-1.73396e-08
1.31405e-08
-2.68298e-08
1.87675e-08
-3.92943e-08
2.57146e-08
-5.52554e-08
3.41262e-08
-7.52807e-08
4.41514e-08
-9.99765e-08
5.59407e-08
-1.29977e-07
6.9641e-08
-1.6593e-07
8.53907e-08
-2.08472e-07
1.03312e-07
-2.58205e-07
1.23501e-07
-3.15656e-07
1.46019e-07
-3.81238e-07
1.70877e-07
-4.55182e-07
1.98034e-07
-5.37511e-07
2.27381e-07
-6.27976e-07
2.58742e-07
-7.26014e-07
2.91865e-07
-8.30721e-07
3.26439e-07
-9.40842e-07
3.62102e-07
-1.0548e-06
3.98467e-07
-1.17078e-06
4.35167e-07
-1.28679e-06
4.71901e-07
-1.40089e-06
5.08484e-07
-1.51135e-06
5.44957e-07
-1.61669e-06
5.81431e-07
-1.7164e-06
-1.80971e-06
6.18773e-07
3.04808e-10
-7.00172e-10
1.26877e-09
-3.1932e-09
2.98702e-09
-7.15672e-09
5.56375e-09
-1.29271e-08
9.11227e-09
-2.08882e-08
1.37549e-08
-3.14724e-08
1.96223e-08
-4.51617e-08
2.68525e-08
-6.24857e-08
3.55893e-08
-8.40175e-08
4.59792e-08
-1.10366e-07
5.8168e-08
-1.42166e-07
7.2296e-08
-1.80058e-07
8.84915e-08
-2.24668e-07
1.06863e-07
-2.76576e-07
1.27491e-07
-3.36284e-07
1.50412e-07
-4.04159e-07
1.75615e-07
-4.80386e-07
2.0303e-07
-5.64926e-07
2.32519e-07
-6.57464e-07
2.63873e-07
-7.57368e-07
2.96812e-07
-8.6366e-07
3.30998e-07
-9.75028e-07
3.6605e-07
-1.08986e-06
4.01571e-07
-1.2063e-06
4.37196e-07
-1.32241e-06
4.72631e-07
-1.43633e-06
5.07698e-07
-1.54641e-06
5.42393e-07
-1.65139e-06
5.76718e-07
-1.75072e-06
-1.84401e-06
6.11019e-07
3.19643e-10
-1.01981e-09
1.329e-09
-4.20256e-09
3.12583e-09
-8.95355e-09
5.81673e-09
-1.5618e-08
9.5171e-09
-2.45885e-08
1.43508e-08
-3.63061e-08
2.04495e-08
-5.12604e-08
2.79511e-08
-6.99873e-08
3.69978e-08
-9.30642e-08
4.77331e-08
-1.21102e-07
6.02976e-08
-1.54731e-07
7.48239e-08
-1.94584e-07
9.14294e-08
-2.41273e-07
1.10209e-07
-2.95356e-07
1.31224e-07
-3.57299e-07
1.54489e-07
-4.27424e-07
1.79968e-07
-5.05865e-07
2.07563e-07
-5.92521e-07
2.37107e-07
-6.87008e-07
2.6836e-07
-7.88621e-07
3.01016e-07
-8.96316e-07
3.34714e-07
-1.00873e-06
3.69054e-07
-1.1242e-06
4.03636e-07
-1.24088e-06
4.38098e-07
-1.35688e-06
4.72154e-07
-1.47038e-06
5.05632e-07
-1.57989e-06
5.38519e-07
-1.68427e-06
5.70829e-07
-1.78303e-06
-1.87594e-06
6.02763e-07
3.34171e-10
-1.35399e-09
1.38784e-09
-5.25623e-09
3.26114e-09
-1.08269e-08
6.06279e-09
-1.84197e-08
9.90997e-09
-2.84357e-08
1.49278e-08
-4.13239e-08
2.12482e-08
-5.75808e-08
2.90086e-08
-7.77476e-08
3.83491e-08
-1.02405e-07
4.94095e-08
-1.32162e-07
6.23245e-08
-1.67646e-07
7.72179e-08
-2.09477e-07
9.41957e-08
-2.58251e-07
1.13338e-07
-3.14498e-07
1.34685e-07
-3.78647e-07
1.58232e-07
-4.50971e-07
1.83916e-07
-5.31549e-07
2.11612e-07
-6.20217e-07
2.41124e-07
-7.1652e-07
2.72183e-07
-8.1968e-07
3.04458e-07
-9.28591e-07
3.37568e-07
-1.04184e-06
3.71102e-07
-1.15773e-06
4.0466e-07
-1.27444e-06
4.37886e-07
-1.3901e-06
4.70509e-07
-1.50301e-06
5.02375e-07
-1.61176e-06
5.33495e-07
-1.71539e-06
5.63962e-07
-1.8135e-06
-1.90588e-06
5.93894e-07
3.48385e-10
-1.70237e-09
1.44525e-09
-6.35309e-09
3.39282e-09
-1.27744e-08
6.30167e-09
-2.13285e-08
1.02904e-08
-3.24244e-08
1.54848e-08
-4.65184e-08
2.2017e-08
-6.4113e-08
3.0023e-08
-8.57536e-08
3.96404e-08
-1.12022e-07
5.10045e-08
-1.43526e-07
6.42432e-08
-1.80884e-07
7.9471e-08
-2.24705e-07
9.67815e-08
-2.75561e-07
1.16239e-07
-3.33955e-07
1.37863e-07
-4.00271e-07
1.61627e-07
-4.74734e-07
1.87443e-07
-5.57366e-07
2.15158e-07
-6.47933e-07
2.44549e-07
-7.4591e-07
2.75321e-07
-8.50452e-07
3.0712e-07
-9.60391e-07
3.39549e-07
-1.07426e-06
3.72189e-07
-1.19037e-06
4.04646e-07
-1.30689e-06
4.36576e-07
-1.42203e-06
4.6773e-07
-1.53416e-06
4.97981e-07
-1.64201e-06
5.27386e-07
-1.7448e-06
5.56111e-07
-1.84223e-06
-1.93401e-06
5.84245e-07
3.62272e-10
-2.06464e-09
1.50115e-09
-7.49196e-09
3.5207e-09
-1.4794e-08
6.533e-09
-2.43408e-08
1.06577e-08
-3.65491e-08
1.6021e-08
-5.18817e-08
2.27543e-08
-7.08463e-08
3.0992e-08
-9.39914e-08
4.08685e-08
-1.21899e-07
5.25136e-08
-1.55171e-07
6.60479e-08
-1.94419e-07
8.15758e-08
-2.40233e-07
9.91775e-08
-2.93163e-07
1.189e-07
-3.53677e-07
1.40743e-07
-4.22115e-07
1.64658e-07
-4.98649e-07
1.90531e-07
-5.83239e-07
2.18184e-07
-6.75585e-07
2.47365e-07
-7.75091e-07
2.77757e-07
-8.80844e-07
3.08987e-07
-9.91622e-07
3.40644e-07
-1.10592e-06
3.72311e-07
-1.22204e-06
4.03598e-07
-1.33818e-06
4.34183e-07
-1.45262e-06
4.63843e-07
-1.56382e-06
4.92485e-07
-1.67065e-06
5.20226e-07
-1.77254e-06
5.47252e-07
-1.86925e-06
-1.96046e-06
5.73701e-07
3.75808e-10
-2.44045e-09
1.55544e-09
-8.6716e-09
3.64452e-09
-1.68831e-08
6.7563e-09
-2.74526e-08
1.1011e-08
-4.08038e-08
1.65349e-08
-5.74055e-08
2.34582e-08
-7.77696e-08
3.19129e-08
-1.02446e-07
4.20294e-08
-1.32015e-07
5.39318e-08
-1.67074e-07
6.77322e-08
-2.08219e-07
8.35241e-08
-2.56025e-07
1.01374e-07
-3.11013e-07
1.2131e-07
-3.73613e-07
1.43313e-07
-4.44118e-07
1.6731e-07
-5.22646e-07
1.93165e-07
-6.09094e-07
2.20672e-07
-7.03092e-07
2.49556e-07
-8.03975e-07
2.79479e-07
-9.10766e-07
3.1005e-07
-1.02219e-06
3.40851e-07
-1.13672e-06
3.71468e-07
-1.25265e-06
4.01525e-07
-1.36824e-06
4.30723e-07
-1.48181e-06
4.58871e-07
-1.59197e-06
4.85914e-07
-1.69769e-06
5.12029e-07
-1.79865e-06
5.37379e-07
-1.8946e-06
-1.98528e-06
5.62202e-07
3.88963e-10
-2.82941e-09
1.608e-09
-9.89063e-09
3.76397e-09
-1.9039e-08
6.97096e-09
-3.06596e-08
1.13495e-08
-4.51823e-08
1.7025e-08
-6.30811e-08
2.41264e-08
-8.48709e-08
3.27825e-08
-1.11102e-07
4.31192e-08
-1.42352e-07
5.52538e-08
-1.79208e-07
6.92895e-08
-2.22255e-07
8.53079e-08
-2.72044e-07
1.03361e-07
-3.29066e-07
1.23457e-07
-3.9371e-07
1.45559e-07
-4.6622e-07
1.6957e-07
-5.46658e-07
1.9533e-07
-6.34854e-07
2.22609e-07
-7.30371e-07
2.5111e-07
-8.32475e-07
2.80474e-07
-9.40131e-07
3.103e-07
-1.05202e-06
3.40167e-07
-1.16659e-06
3.69666e-07
-1.28215e-06
3.9844e-07