/*--------------------------------*- C++ -*----------------------------------*\
| =========                 |                                                 |
| \\      /  F ield         | foam-extend: Open Source CFD                    |
|  \\    /   O peration     | Version:     4.0                                |
|   \\  /    A nd           | Web:         http://www.foam-extend.org         |
|    \\/     M anipulation  |                                                 |
\*---------------------------------------------------------------------------*/
FoamFile
{
    version     2.0;
    format      ascii;
    class       volVectorField;
    location    "15";
    object      U;
}
// * * * * * * * * * * * * * * * * * * * * * * * * * * * * * * * * * * * * * //

dimensions      [0 1 -1 0 0 0 0];

internalField   nonuniform List<vector> 
36000
(
(-3.73681e-07 1.63005e-06 -1.44299e-25)
(-3.45655e-06 4.39737e-06 1.48986e-25)
(-9.52448e-06 6.74285e-06 0)
(-1.83086e-05 8.63457e-06 0)
(-2.93943e-05 1.00428e-05 -1.30721e-25)
(-4.2313e-05 1.09391e-05 -1.23813e-25)
(-5.65176e-05 1.12975e-05 0)
(-7.1353e-05 1.10954e-05 0)
(-8.60503e-05 1.03141e-05 0)
(-9.9726e-05 8.93959e-06 0)
(-0.000111383 6.96317e-06 0)
(-0.000119917 4.38247e-06 -1.61197e-25)
(-0.000124113 1.202e-06 1.03775e-27)
(-0.000122681 -2.55705e-06 -1.36043e-25)
(-0.000114241 -6.8821e-06 1.20196e-25)
(-9.73574e-05 -1.1736e-05 -1.11824e-25)
(-7.05731e-05 -1.70704e-05 1.95046e-25)
(-3.24415e-05 -2.28231e-05 -8.23419e-26)
(1.84501e-05 -2.89172e-05 7.6328e-26)
(8.33884e-05 -3.52527e-05 1.85395e-25)
(0.000163495 -4.17186e-05 -5.90509e-27)
(0.000259676 -4.81832e-05 1.65336e-25)
(0.000372531 -5.44981e-05 -3.65259e-26)
(0.000502294 -6.05008e-05 -4.57374e-26)
(0.000648755 -6.60191e-05 -3.23796e-26)
(0.000811215 -7.08782e-05 0)
(0.000988429 -7.49092e-05 0)
(0.00117864 -7.79618e-05 0)
(0.00137936 -7.98998e-05 -4.44091e-27)
(0.00158874 -8.06653e-05 1.30601e-26)
(-5.41008e-07 4.88608e-06 0)
(-3.883e-06 1.31754e-05 0)
(-1.01335e-05 2.01942e-05 0)
(-1.90205e-05 2.58461e-05 5.52946e-25)
(-3.01272e-05 3.0041e-05 -1.28567e-25)
(-4.29829e-05 3.26934e-05 1.23805e-25)
(-5.70384e-05 3.37249e-05 0)
(-7.16375e-05 3.30669e-05 0)
(-8.60106e-05 3.06631e-05 -4.10368e-25)
(-9.92743e-05 2.64712e-05 3.84923e-25)
(-0.000110433 2.04652e-05 -3.5279e-25)
(-0.000118383 1.26383e-05 3.29949e-25)
(-0.000121917 3.00829e-06 1.49512e-25)
(-0.00011974 -8.3799e-06 1.41841e-25)
(-0.000110482 -2.14626e-05 2.50532e-25)
(-9.27161e-05 -3.61361e-05 0)
(-6.49931e-05 -5.22555e-05 -5.76095e-25)
(-2.58792e-05 -6.96322e-05 2.14861e-26)
(2.60254e-05 -8.80253e-05 5.93284e-25)
(9.19917e-05 -0.000107145 -3.89942e-25)
(0.000173121 -0.000126646 -2.13479e-25)
(0.000270299 -0.000146131 1.63831e-25)
(0.000384101 -0.00016515 -1.48112e-25)
(0.000514732 -0.000183211 2.12098e-25)
(0.000661956 -0.000199795 9.12167e-27)
(0.000825044 -0.000214373 1.01385e-25)
(0.00100272 -0.000226437 -9.89388e-26)
(0.00119322 -0.000235532 0)
(0.00139397 -0.000241252 0)
(0.00160333 -0.000243423 0)
(-8.72104e-07 8.08083e-06 5.88797e-25)
(-4.72622e-06 2.17854e-05 5.44169e-27)
(-1.13365e-05 3.33837e-05 -8.77998e-25)
(-2.04248e-05 4.27152e-05 1.11958e-24)
(-3.15697e-05 4.96299e-05 -1.32302e-24)
(-4.42963e-05 5.3985e-05 -1.00577e-24)
(-5.80514e-05 5.56499e-05 1.89565e-24)
(-7.21762e-05 5.45103e-05 -8.91697e-25)
(-8.58999e-05 5.0472e-05 0)
(-9.83392e-05 4.34643e-05 0)
(-0.000108501 3.34435e-05 0)
(-0.000115284 2.03992e-05 0)
(-0.00011749 4.35994e-06 6.00475e-25)
(-0.000113829 -1.46054e-05 -1.37993e-24)
(-0.00010294 -3.63829e-05 1.01253e-24)
(-8.34137e-05 -6.07996e-05 0)
(-5.38184e-05 -8.76155e-05 3.87064e-25)
(-1.27395e-05 -0.000116517 -3.59223e-25)
(4.11865e-05 -0.0001471 0)
(0.000109199 -0.000178884 0)
(0.000192369 -0.000211295 1.05984e-24)
(0.000291533 -0.000243666 -5.51125e-25)
(0.00040722 -0.00027525 0)
(0.000539579 -0.000305228 -1.77899e-26)
(0.000688318 -0.000332733 -1.78855e-25)
(0.000852651 -0.000356889 -1.34488e-25)
(0.00103125 -0.00037685 2.73027e-26)
(0.00122231 -0.00039186 2.04235e-26)
(0.00142311 -0.000401253 0)
(0.00163242 -0.000404739 -6.73649e-26)
(-1.35949e-06 1.11746e-05 0)
(-5.96618e-06 3.01183e-05 0)
(-1.31031e-05 4.61413e-05 2.95366e-25)
(-2.24827e-05 5.90194e-05 -1.14003e-24)
(-3.36769e-05 6.8543e-05 2.16086e-24)
(-4.62041e-05 7.45126e-05 -1.53965e-24)
(-5.95053e-05 7.67453e-05 0)
(-7.29174e-05 7.50812e-05 0)
(-8.56677e-05 6.93882e-05 -1.2739e-24)
(-9.68733e-05 5.95668e-05 1.57842e-24)
(-0.000105543 4.55565e-05 -7.3595e-25)
(-0.000110584 2.73417e-05 -6.82889e-25)
(-0.000110803 4.95904e-06 1.22364e-24)
(-0.000104925 -2.14964e-05 -1.14131e-24)
(-9.16026e-05 -5.18624e-05 -5.04798e-25)
(-6.9449e-05 -8.58961e-05 0)
(-3.70604e-05 -0.000123263 -1.61661e-24)
(6.94612e-06 -0.000163523 9.40203e-27)
(6.38865e-05 -0.000206118 1.22794e-24)
(0.000134953 -0.000250371 -1.27271e-26)
(0.000221162 -0.00029548 -1.66351e-26)
(0.000323284 -0.000340516 -4.67178e-26)
(0.000441773 -0.000384434 -3.16386e-25)
(0.000576699 -0.000426091 4.69052e-25)
(0.000727683 -0.000464278 0)
(0.000893856 -0.000497776 2.68765e-26)
(0.0010738 -0.000525411 2.93162e-25)
(0.00126567 -0.000546125 -1.2319e-25)
(0.00146653 -0.000559014 -8.73485e-26)
(0.00167573 -0.000563667 8.47864e-26)
(-1.99217e-06 1.41295e-05 9.19854e-25)
(-7.57334e-06 3.80698e-05 -1.90439e-24)
(-1.53884e-05 5.83041e-05 1.21692e-24)
(-2.51371e-05 7.45454e-05 1.1671e-24)
(-3.63825e-05 8.6525e-05 -1.10414e-24)
(-4.86337e-05 9.3987e-05 5.17601e-25)
(-6.13238e-05 9.66967e-05 -1.47219e-24)
(-7.37842e-05 9.44483e-05 3.70687e-24)
(-8.52389e-05 8.70724e-05 -4.30428e-25)
(-9.48057e-05 7.44408e-05 8.19018e-25)
(-0.000101498 5.64745e-05 -7.59402e-25)
(-0.000104227 3.31521e-05 6.82894e-25)
(-0.000101813 4.51798e-06 0)
(-9.29958e-05 -2.93069e-05 0)
(-7.64516e-05 -6.81132e-05 2.09097e-24)
(-5.08208e-05 -0.000111589 -9.56833e-25)
(-1.47365e-05 -0.000159305 8.24518e-25)
(3.31395e-05 -0.000210698 7.25534e-25)
(9.40647e-05 -0.000265053 -1.28445e-24)
(0.000169168 -0.000321502 -1.62868e-24)
(0.00025939 -0.000379019 4.86883e-25)
(0.000365413 -0.000436412 1.5088e-24)
(0.000487594 -0.000492343 -6.64657e-25)
(0.000625893 -0.000545349 3.32711e-26)
(0.000779823 -0.000593888 3.80037e-25)
(0.000948397 -0.000636403 -2.72881e-25)
(0.0011301 -0.000671398 -1.34873e-25)
(0.00132297 -0.000697522 5.93472e-26)
(0.00152387 -0.000713669 1.93361e-26)
(0.00173289 -0.000719287 -4.76082e-26)
(-2.75586e-06 1.69099e-05 2.84032e-24)
(-9.50934e-06 4.55422e-05 -6.47854e-25)
(-1.8134e-05 6.97191e-05 0)
(-2.83137e-05 8.90924e-05 -6.09287e-25)
(-3.95998e-05 0.000103335 -2.85615e-24)
(-5.14901e-05 0.000112135 3.24486e-24)
(-6.34074e-05 0.000115206 1.52686e-24)
(-7.46756e-05 0.000112298 -9.39688e-25)
(-8.45151e-05 0.000103203 8.97215e-25)
(-9.2044e-05 8.77647e-05 -4.13785e-24)
(-9.62786e-05 6.58838e-05 2.30714e-24)
(-9.61396e-05 3.75328e-05 -6.87025e-25)
(-9.04601e-05 2.76342e-06 2.60699e-24)
(-7.79996e-05 -3.8278e-05 -1.20387e-24)
(-5.74631e-05 -8.53368e-05 -3.22193e-24)
(-2.75265e-05 -0.000138033 1.93886e-24)
(1.31322e-05 -0.000195842 -1.72897e-24)
(6.57931e-05 -0.00025808 3.87167e-27)
(0.000131644 -0.000323875 -7.1018e-25)
(0.000211735 -0.000392176 -5.39986e-25)
(0.00030691 -0.00046173 1.9452e-24)
(0.000417742 -0.00053109 -1.64376e-24)
(0.000544464 -0.000598626 0)
(0.000686906 -0.000662564 -5.66864e-25)
(0.000844438 -0.000721033 -4.62804e-25)
(0.00101594 -0.00077215 -6.67356e-25)
(0.00119974 -0.000814104 4.22199e-25)
(0.00139378 -0.000845271 0)
(0.00159467 -0.000864383 2.49199e-25)
(0.0018034 -0.000870709 -2.67616e-26)
(-3.63334e-06 1.94834e-05 0)
(-1.17278e-05 5.24454e-05 0)
(-2.12692e-05 8.02455e-05 0)
(-3.19221e-05 0.000102475 -2.151e-26)
(-4.32238e-05 0.00011875 4.12711e-24)
(-5.46579e-05 0.000128704 -3.31493e-24)
(-6.56348e-05 0.000131999 2.09213e-24)
(-7.54686e-05 0.00012834 -3.93744e-24)
(-8.33758e-05 0.000117482 -9.3596e-25)
(-8.84732e-05 9.92386e-05 -1.70547e-24)
(-8.97812e-05 7.34917e-05 1.59745e-24)
(-8.62297e-05 4.02059e-05 7.33723e-25)
(-7.66683e-05 -5.60011e-07 1.34434e-26)
(-5.98807e-05 -4.86351e-05 0)
(-3.46051e-05 -0.00010372 -4.15391e-26)
(4.40022e-07 -0.000165369 9.48639e-25)
(4.65221e-05 -0.000232965 -9.16681e-25)
(0.000104851 -0.000305699 7.80006e-25)
(0.000176535 -0.000382554 2.7928e-24)
(0.000262525 -0.00046229 -7.87371e-26)
(0.000363551 -0.000543436 -1.14928e-24)
(0.000480055 -0.00062429 -8.30298e-25)
(0.000612123 -0.000702942 1.88034e-26)
(0.000759428 -0.000777308 -6.34424e-25)
(0.00092117 -0.000845202 -9.17835e-25)
(0.00109605 -0.000904418 1.0145e-24)
(0.00128223 -0.000952847 -1.58293e-25)
(0.00147759 -0.000988629 -2.34815e-25)
(0.00167838 -0.00101036 -2.15847e-25)
(0.00188669 -0.00101708 9.91845e-26)
(-4.60479e-06 2.18208e-05 -2.72274e-24)
(-1.41754e-05 5.86991e-05 0)
(-2.47124e-05 8.97567e-05 -2.7048e-24)
(-3.58581e-05 0.000114527 3.19463e-24)
(-4.71328e-05 0.00013257 -3.63418e-24)
(-5.8003e-05 0.000143464 4.60377e-24)
(-6.78645e-05 0.000146823 -4.33664e-24)
(-7.60196e-05 0.000142307 1.00767e-24)
(-8.16795e-05 0.000129635 1.8743e-24)
(-8.39585e-05 0.000108588 -4.23231e-26)
(-8.18812e-05 7.90304e-05 -3.3333e-24)
(-7.43883e-05 4.09171e-05 3.01918e-24)
(-6.03482e-05 -5.68555e-06 -2.85001e-24)
(-3.8572e-05 -6.05839e-05 -5.11066e-24)
(-7.83697e-06 -0.000123435 3.49313e-24)
(3.3089e-05 -0.000193727 1.02759e-24)
(8.54082e-05 -0.000270752 -2.84103e-24)
(0.000150252 -0.000353581 -1.70797e-24)
(0.000228634 -0.000441051 -1.4288e-24)
(0.00032139 -0.00053174 3.77069e-24)
(0.000429117 -0.00062396 -1.19813e-24)
(0.000552104 -0.000715763 -1.72795e-26)
(0.000690268 -0.00080496 -1.64781e-24)
(0.000843097 -0.000889172 2.45593e-24)
(0.00100959 -0.000965897 9.17459e-25)
(0.00118825 -0.00103263 -6.89101e-25)
(0.00137706 -0.00108699 1.08532e-25)
(0.00157381 -0.00112689 4.23707e-25)
(0.00177437 -0.00115084 3.54079e-25)
(0.00198208 -0.00115761 -4.04172e-25)
(-5.64825e-06 2.3897e-05 2.84587e-24)
(-1.67926e-05 6.42331e-05 -3.69065e-24)
(-2.83728e-05 9.81422e-05 -2.81465e-24)
(-4.00051e-05 0.000125102 2.66799e-24)
(-5.11902e-05 0.000144616 2.53348e-24)
(-6.13749e-05 0.000156213 -1.17097e-24)
(-6.99372e-05 0.000159456 0)
(-7.61663e-05 0.000153966 0)
(-7.92653e-05 0.000139419 9.70618e-25)
(-7.83459e-05 0.000115569 1.80883e-24)
(-7.24361e-05 8.22597e-05 5.08084e-24)
(-6.04892e-05 3.94382e-05 -3.18226e-24)
(-4.13946e-05 -1.28232e-05 -5.92887e-26)
(-1.3995e-05 -7.4308e-05 2.63345e-24)
(2.28904e-05 -0.000144632 -1.30133e-24)
(7.04349e-05 -0.000223218 -2.22312e-24)
(0.000129767 -0.000309267 5.86261e-24)
(0.00020193 -0.00040174 1.62789e-24)
(0.000287827 -0.000499324 2.22014e-27)
(0.000388165 -0.00060042 -8.13481e-27)
(0.000503388 -0.00070313 -7.87204e-26)
(0.000633611 -0.000805263 9.34961e-25)
(0.000778559 -0.000904363 2.4128e-24)
(0.000937496 -0.000997753 1.15388e-25)
(0.0011092 -0.00108264 9.81098e-25)
(0.00129197 -0.00115624 -2.52024e-24)
(0.00148361 -0.00121592 -1.0834e-24)
(0.00168178 -0.0012594 1.25803e-25)
(0.00188193 -0.00128512 3.41823e-25)
(0.00208883 -0.00129153 2.52842e-25)
(-6.74002e-06 2.5691e-05 -2.21402e-24)
(-1.95153e-05 6.89886e-05 3.82223e-24)
(-3.21518e-05 0.000105309 -1.49944e-24)
(-4.42366e-05 0.000134074 4.21254e-24)
(-5.52476e-05 0.000154739 -2.63778e-24)
(-6.46091e-05 0.000166778 -1.22134e-24)
(-7.16783e-05 0.000169709 -4.68603e-24)
(-7.57297e-05 0.000163111 4.40975e-24)
(-7.59559e-05 0.000146622 -2.10305e-24)
(-7.14649e-05 0.000119968 0)
(-6.12881e-05 8.29711e-05 -3.54398e-24)
(-4.43923e-05 3.55712e-05 3.31506e-24)
(-1.96893e-05 -2.21538e-05 -1.52244e-24)
(1.39427e-05 -8.99651e-05 2.80563e-24)
(5.76357e-05 -0.000167438 1.23892e-24)
(0.000112498 -0.000253932 0)
(0.000179577 -0.000348563 1.01326e-25)
(0.000259817 -0.000450178 0)
(0.000353996 -0.000557321 8.96015e-26)
(0.000462675 -0.00066822 2.8477e-24)
(0.000586126 -0.000780772 2.45616e-24)
(0.000724273 -0.000892552 9.14926e-25)
(0.000876612 -0.00100084 -5.22907e-24)
(0.00104217 -0.00110267 1.4894e-25)
(0.00121949 -0.00119499 0)
(0.00140665 -0.00127474 1.8471e-24)
(0.00160123 -0.00133909 2.42891e-26)
(0.00180079 -0.00138555 1.69044e-24)
(0.0020003 -0.00141255 0)
(0.00220613 -0.00141818 -4.94878e-25)
(-7.85519e-06 2.71861e-05 8.3178e-25)
(-2.22758e-05 7.29186e-05 1.64722e-24)
(-3.59452e-05 0.000111181 3.0678e-24)
(-4.8418e-05 0.000141345 -8.73648e-24)
(-5.91465e-05 0.000162814 4.1002e-24)
(-6.75294e-05 0.000175016 -3.86784e-24)
(-7.29e-05 0.000177424 9.78689e-24)
(-7.45168e-05 0.000169573 -4.5995e-24)
(-7.15592e-05 0.000151069 4.29775e-24)
(-6.31288e-05 0.000121607 0)
(-4.82631e-05 8.0991e-05 0)
(-2.59413e-05 2.9152e-05 5.17672e-24)
(4.89966e-06 -3.38267e-05 -4.78378e-26)
(4.53425e-05 -0.000107685 -2.93187e-24)
(9.64646e-05 -0.000191956 9.55927e-26)
(0.000159305 -0.00028594 -2.87864e-26)
(0.000234821 -0.000388671 -4.24459e-24)
(0.000323843 -0.000498883 1.97581e-24)
(0.000427015 -0.000614983 -1.67333e-24)
(0.000544731 -0.000735027 1.46697e-24)
(0.000677077 -0.000856716 -5.25707e-24)
(0.000823758 -0.000977396 -4.49668e-24)
(0.000984015 -0.00109408 2.15999e-24)
(0.00115663 -0.00120357 3.32605e-24)
(0.00133989 -0.00130253 -1.35481e-24)
(0.00153163 -0.00138768 -9.75177e-25)
(0.0017292 -0.00145597 0)
(0.00193004 -0.00150477 -1.10994e-24)
(0.00212864 -0.00153256 0)
(0.0023331 -0.00153693 7.36318e-25)
(-8.96801e-06 2.83701e-05 -1.59111e-24)
(-2.50038e-05 7.5988e-05 5.10106e-24)
(-3.96444e-05 0.000115702 -6.33596e-24)
(-5.24089e-05 0.000146836 -6.90182e-26)
(-6.27207e-05 0.000168747 2.8825e-24)
(-6.99503e-05 0.000180816 -6.75922e-24)
(-7.34047e-05 0.000182477 5.1182e-24)
(-7.23234e-05 0.000173221 0)
(-6.58691e-05 0.000152622 2.27583e-24)
(-5.31393e-05 0.000120347 -6.33128e-24)
(-3.31744e-05 7.61821e-05 0)
(-4.96783e-06 2.00503e-05 -7.17157e-24)
(3.25155e-05 -4.79587e-05 3.33688e-24)
(8.03161e-05 -0.000127563 -3.11478e-24)
(0.000139454 -0.00021826 -2.616e-24)
(0.00021089 -0.00031929 5.01987e-24)
(0.000295485 -0.000429604 0)
(0.000393941 -0.000547829 2.10065e-24)
(0.000506754 -0.000672236 3.55484e-24)
(0.000634138 -0.00080072 -6.59632e-24)
(0.000775973 -0.000930789 2.71013e-24)
(0.000931712 -0.00105956 -2.49319e-24)
(0.00110034 -0.00118381 -1.96963e-24)
(0.00128037 -0.00130011 -1.81347e-24)
(0.00146981 -0.00140488 -1.49792e-25)
(0.00166624 -0.00149461 0)
(0.00186676 -0.0015661 -1.90984e-24)
(0.00206873 -0.00161657 0)
(0.00226608 -0.0016446 0)
(0.00246883 -0.00164727 6.20745e-25)
(-1.00524e-05 2.92353e-05 1.75066e-24)
(-2.76277e-05 7.81737e-05 -1.80964e-24)
(-4.31383e-05 0.000118833 -8.36451e-24)
(-5.60648e-05 0.000150496 7.92988e-24)
(-6.57993e-05 0.000172472 -7.49657e-24)
(-7.16801e-05 0.000184103 8.59512e-24)
(-7.2987e-05 0.000184778 -5.33576e-24)
(-6.89358e-05 0.000173959 1.00219e-23)
(-5.86714e-05 0.00015118 -4.69841e-24)
(-4.12865e-05 0.000116086 2.13745e-24)
(-1.58241e-05 6.8445e-05 1.96431e-24)
(1.87064e-05 8.17487e-06 -3.86473e-24)
(6.33112e-05 -6.46298e-05 0)
(0.000118987 -0.000149667 3.21808e-24)
(0.00018669 -0.000246396 9.52158e-26)
(0.000267297 -0.000354001 5.33715e-24)
(0.000361558 -0.000471351 -4.89362e-24)
(0.000470043 -0.000596969 2.13525e-24)
(0.000593081 -0.000728996 -3.73129e-24)
(0.000730692 -0.00086517 6.79014e-24)
(0.000882529 -0.00100281 0)
(0.00104777 -0.00113882 0)
(0.00122514 -0.00126977 4.25477e-24)
(0.00141285 -0.00139198 1.61623e-24)
(0.00160863 -0.00150167 -3.10114e-24)
(0.00180976 -0.00159514 -1.30474e-24)
(0.00201312 -0.00166905 1.90897e-24)
(0.00221597 -0.0017205 1.67234e-24)
(0.00241171 -0.00174825 1.28856e-24)
(0.00261237 -0.00174872 -9.17444e-25)
(-1.10821e-05 2.97776e-05 -8.92184e-24)
(-3.00753e-05 7.94639e-05 1.80964e-24)
(-4.63146e-05 0.000120556 0)
(-5.92394e-05 0.000152295 0)
(-6.82074e-05 0.000173952 -6.30279e-24)
(-7.2523e-05 0.000184828 3.04434e-24)
(-7.14371e-05 0.000184281 0)
(-6.41331e-05 0.000171729 0)
(-4.97441e-05 0.000146682 -2.37952e-24)
(-2.73535e-05 0.000108763 6.91995e-24)
(3.99229e-06 5.77223e-05 -9.54039e-26)
(4.52688e-05 -6.52717e-06 2.03675e-24)
(9.74506e-05 -8.38843e-05 -6.36812e-26)
(0.000161487 -0.000174027 -6.57406e-24)
(0.000238265 -0.000276378 6.21491e-24)
(0.000328571 -0.000390063 1.37242e-25)
(0.000433037 -0.000513876 2.46117e-24)
(0.000552084 -0.000646237 9.14169e-24)
(0.000685864 -0.000785163 -1.2282e-23)
(0.000834188 -0.00092824 0)
(0.000996455 -0.00107261 0)
(0.00117157 -0.00121496 5.52766e-24)
(0.00135795 -0.00135168 -2.4651e-24)
(0.00155352 -0.00147888 2.09578e-24)
(0.00175567 -0.00159258 -1.601e-24)
(0.00196145 -0.00168892 8.33435e-24)
(0.00216745 -0.00176444 -1.55265e-25)
(0.00237088 -0.00181618 -2.63137e-24)
(0.00256457 -0.00184312 1.80806e-25)
(0.00276272 -0.00184091 1.83187e-24)
(-1.20315e-05 2.99972e-05 -5.59844e-24)
(-3.22757e-05 7.98577e-05 7.76883e-24)
(-4.90629e-05 0.000120866 0)
(-6.17885e-05 0.000152229 -6.98485e-24)
(-6.97737e-05 0.000173179 3.22975e-24)
(-7.22865e-05 0.000182984 0)
(-6.85397e-05 0.000180964 2.99068e-24)
(-5.76937e-05 0.000166511 -2.80308e-24)
(-3.88618e-05 0.000139109 -2.50615e-24)
(-1.11186e-05 9.83574e-05 -2.33658e-24)
(2.64873e-05 4.39955e-05 2.17218e-24)
(7.49146e-05 -2.40692e-05 -8.23645e-24)
(0.000135105 -0.000105728 7.60609e-24)
(0.000207956 -0.000200637 3.58078e-24)
(0.000294281 -0.000308184 -6.41397e-24)
(0.000394767 -0.000427438 1.42866e-25)
(0.000509919 -0.000557118 -5.24018e-24)
(0.000640001 -0.000695546 -4.52555e-24)
(0.000784969 -0.000840618 4.33474e-24)
(0.000944412 -0.000989779 3.90174e-24)
(0.00111745 -0.00113999 6.7609e-24)
(0.00130271 -0.00128777 -5.88728e-24)
(0.00149829 -0.00142931 0)
(0.00170177 -0.00156053 -4.17798e-24)
(0.00191027 -0.00167731 -1.88721e-24)
(0.00212052 -0.00177563 -1.17215e-24)
(0.00232888 -0.00185197 3.6353e-24)
(0.00253252 -0.0019033 -1.88914e-24)
(0.00272369 -0.0019289 -1.18738e-24)
(0.00291887 -0.00192357 1.2928e-24)
(-1.28759e-05 2.98987e-05 -1.92704e-24)
(-3.41609e-05 7.93662e-05 2.08467e-24)
(-5.12763e-05 0.00011978 -1.97807e-24)
(-6.35716e-05 0.000150314 -1.87214e-24)
(-7.03273e-05 0.00017017 3.37841e-24)
(-7.07719e-05 0.000178583 9.82721e-24)
(-6.40839e-05 0.000174846 -1.22435e-23)
(-4.93946e-05 0.000158324 2.80306e-24)
(-2.57971e-05 0.000128478 -2.60255e-24)
(7.64412e-06 8.48892e-05 9.98923e-24)
(5.18778e-05 2.72864e-05 -9.28865e-24)
(0.000107844 -4.44244e-05 4.25162e-24)
(0.000176451 -0.000130126 -1.18685e-23)
(0.000258539 -0.000229454 -7.22945e-24)
(0.000354844 -0.000341757 1.34947e-23)
(0.000465944 -0.000466053 3.07932e-24)
(0.000592209 -0.000600985 -1.13626e-23)
(0.000733731 -0.000744782 1.01474e-23)
(0.000890262 -0.000895226 -4.60538e-24)
(0.00106115 -0.00104962 -4.15715e-24)
(0.00124522 -0.00120477 2.087e-25)
(0.00144079 -0.00135702 0)
(0.00164564 -0.00150241 2.81057e-24)
(0.00185702 -0.00163669 0)
(0.00207171 -0.00175559 3.80326e-24)
(0.00228618 -0.001855 2.66474e-25)
(0.00249655 -0.00193135 0)
(0.00269994 -0.00198159 2.12133e-25)
(0.00288809 -0.00200537 -1.58955e-24)
(0.00307978 -0.00199648 1.45713e-24)
(-1.35914e-05 2.94902e-05 0)
(-3.56637e-05 7.80101e-05 -2.08467e-24)
(-5.28484e-05 0.000117326 -6.10902e-24)
(-6.44463e-05 0.000146588 1.34551e-23)
(-6.96968e-05 0.000164968 -1.09151e-23)
(-6.77877e-05 0.000171675 -3.30669e-24)
(-5.78598e-05 0.000165979 9.53203e-24)
(-3.90144e-05 0.000147222 -3.06208e-24)
(-1.03228e-05 0.000114845 2.84386e-24)
(2.91608e-05 6.84173e-05 -5.23772e-24)
(8.03818e-05 7.65797e-06 4.83582e-24)
(0.000144261 -6.75253e-05 -4.52108e-24)
(0.000221668 -0.000157005 -1.86442e-25)
(0.000313385 -0.000260395 5.39767e-26)
(0.000420062 -0.000377006 3.65097e-24)
(0.000542162 -0.000505803 0)
(0.000679909 -0.000645357 5.71857e-24)
(0.000833213 -0.000793808 -5.17418e-24)
(0.00100161 -0.000948829 0)
(0.00118418 -0.0011076 4.15541e-24)
(0.00137944 -0.00126675 1.81282e-26)
(0.00158541 -0.00142251 -3.41602e-24)
(0.0017995 -0.00157075 -8.78919e-24)
(0.00201865 -0.0017071 -5.15794e-24)
(0.00223928 -0.00182718 0)
(0.00245762 -0.0019268 -3.42829e-24)
(0.00266954 -0.00200238 0)
(0.00287219 -0.00205088 -2.29268e-24)
(0.00305676 -0.00207237 0)
(0.00324443 -0.00205951 -3.08562e-24)
(-1.41553e-05 2.87824e-05 0)
(-3.67202e-05 7.58182e-05 0)
(-5.36777e-05 0.000113551 0)
(-6.42791e-05 0.000141109 -8.01221e-24)
(-6.77205e-05 0.000157641 1.1242e-23)
(-6.31481e-05 0.000162337 -7.1253e-24)
(-4.96631e-05 0.000154447 3.41348e-24)
(-2.63356e-05 0.000133293 6.2598e-24)
(7.78528e-06 9.83053e-05 0)
(5.36553e-05 4.90399e-05 -5.57384e-24)
(0.000112216 -1.47869e-05 1.01039e-23)
(0.000184367 -9.32641e-05 -8.25878e-26)
(0.000270937 -0.000186252 -4.03487e-26)
(0.000372644 -0.00029334 -3.92105e-24)
(0.000490045 -0.000413801 3.76801e-24)
(0.000623484 -0.000546547 0)
(0.000773024 -0.000690081 -1.23697e-23)
(0.000938383 -0.000842459 1.11368e-23)
(0.00111886 -0.00100125 -5.09455e-24)
(0.00131327 -0.0011635 0)
(0.0015198 -0.00132572 -3.91289e-24)
(0.00173613 -0.00148402 3.61287e-24)
(0.00195935 -0.00163412 2.9905e-24)
(0.00218602 -0.00177155 2.41882e-24)
(0.00241226 -0.00189186 0)
(0.00263401 -0.00199082 3.9682e-24)
(0.00284697 -0.00206488 0)
(0.0030483 -0.00211102 0)
(0.00322869 -0.0021298 2.49001e-24)
(0.00341177 -0.00211263 3.32739e-24)
(-1.45465e-05 2.77886e-05 0)
(-3.72704e-05 7.2827e-05 0)
(-5.36689e-05 0.00010851 0)
(-6.29424e-05 0.00013395 8.37249e-24)
(-6.42429e-05 0.000148279 7.88116e-24)
(-5.66738e-05 0.000150671 -1.12374e-23)
(-3.92954e-05 0.00014036 3.54504e-24)
(-1.11464e-05 0.000116659 -6.40964e-24)
(2.87462e-05 7.89855e-05 6.08795e-24)
(8.1348e-05 2.68909e-05 -1.14856e-23)
(0.000147594 -3.99078e-05 7.79434e-26)
(0.000228361 -0.000121494 8.3259e-26)
(0.000324434 -0.000217713 4.68178e-24)
(0.000436462 -0.000328128 0)
(0.000564902 -0.000451974 -1.14143e-23)
(0.000709967 -0.00058811 7.10992e-24)
(0.000871554 -0.000734974 6.28911e-24)
(0.00104917 -0.00089054 -5.98174e-24)
(0.00124189 -0.00105228 5.40435e-24)
(0.00144818 -0.00121713 -4.6504e-24)
(0.00166596 -0.00138148 8.4269e-24)
(0.00189254 -0.00154132 -3.81203e-24)
(0.00212465 -0.00169229 0)
(0.00235849 -0.00182984 1.09507e-23)
(0.00258988 -0.00194945 -1.00274e-23)
(0.00281451 -0.00204691 -4.2858e-26)
(0.00302791 -0.00211873 -3.6058e-24)
(0.0032273 -0.00216194 -2.6817e-24)
(0.00340291 -0.00217764 -1.98174e-24)
(0.00358077 -0.00215583 0)
(-1.47451e-05 2.65248e-05 0)
(-3.72584e-05 6.90801e-05 0)
(-5.27323e-05 0.000102272 4.50991e-24)
(-6.0316e-05 0.000125202 -8.56676e-24)
(-5.91169e-05 0.00013699 -8.22481e-24)
(-4.81938e-05 0.000136801 1.15621e-23)
(-2.65675e-05 0.000123859 -3.71478e-24)
(6.75573e-06 9.74703e-05 -6.81578e-24)
(5.27701e-05 5.70479e-05 3.25106e-24)
(0.00011245 2.1419e-06 0)
(0.000186721 -6.75265e-05 1.10004e-23)
(0.000276437 -0.000152031 -1.02835e-23)
(0.000382333 -0.000251198 0)
(0.000504982 -0.000364563 0)
(0.000644736 -0.000491321 -4.10945e-24)
(0.000801667 -0.000630282 -7.53619e-24)
(0.000975495 -0.000779819 6.88315e-24)
(0.00116551 -0.00093783 5.9793e-24)
(0.00137052 -0.0011017 -1.10627e-23)
(0.00158869 -0.00126825 -5.08953e-24)
(0.00181759 -0.00143378 4.54467e-24)
(0.00205418 -0.0015942 -3.83307e-24)
(0.00229484 -0.00174507 3.53556e-24)
(0.00253541 -0.00188177 0)
(0.00277141 -0.00199979 3.82615e-26)
(0.0029983 -0.00209495 1.32558e-23)
(0.00321147 -0.00216386 -3.8505e-24)
(0.00340823 -0.00220362 0)
(0.00357845 -0.00221592 5.20299e-24)
(0.00375043 -0.0021892 -4.04325e-24)
(-1.47331e-05 2.50087e-05 0)
(-3.66323e-05 6.46273e-05 -1.01743e-23)
(-5.07843e-05 9.49147e-05 9.46193e-24)
(-5.6287e-05 0.000114969 4.6355e-24)
(-5.22034e-05 0.000123901 -8.60865e-24)
(-3.75469e-05 0.000120875 -3.93924e-24)
(-1.12996e-05 0.000105108 1.88815e-23)
(2.75641e-05 7.5906e-05 -1.78064e-23)
(8.00585e-05 3.26835e-05 1.00578e-23)
(0.000147163 -2.50049e-05 6.31168e-24)
(0.000229796 -9.74306e-05 5.86984e-24)
(0.000328781 -0.000184653 0)
(0.000444797 -0.000286478 -9.83132e-24)
(0.000578337 -0.000402409 9.16406e-24)
(0.000729641 -0.000531604 1.24444e-23)
(0.000898628 -0.000672819 -8.07706e-24)
(0.00108483 -0.00082437 3.03779e-25)
(0.00128731 -0.00098408 -6.32473e-24)
(0.00150459 -0.00114926 5.59794e-24)
(0.00173452 -0.00131661 5.08719e-24)
(0.00197432 -0.0014824 2.20831e-25)
(0.00222061 -0.00164244 0)
(0.00246936 -0.00179224 7.43803e-24)
(0.00271612 -0.00192717 0)
(0.00295608 -0.00204275 5.59393e-24)
(0.00318453 -0.00213485 2.6866e-25)
(0.00339673 -0.00220024 3.73271e-24)
(0.00359016 -0.00223611 -3.27077e-25)
(0.00375436 -0.00224476 -1.05459e-23)
(0.0039198 -0.0022129 6.33331e-24)
(-1.44939e-05 2.32598e-05 0)
(-3.53445e-05 5.95225e-05 -1.06061e-23)
(-4.77479e-05 8.65248e-05 2.50395e-23)
(-5.07512e-05 0.000103365 -4.67007e-24)
(-4.33734e-05 0.000109155 0)
(-2.45829e-05 0.000103056 1.68567e-25)
(6.67608e-06 8.42911e-05 1.57544e-23)
(5.14591e-05 5.21702e-05 -1.48265e-23)
(0.000110799 6.11317e-06 -6.72836e-24)
(0.000185678 -5.43157e-05 6.60413e-24)
(0.000277004 -0.000129375 -2.39051e-23)
(0.000385563 -0.000219106 2.78838e-23)
(0.000511978 -0.00032329 -2.05657e-23)
(0.00065665 -0.000441398 4.69815e-24)
(0.000819698 -0.000572546 -8.6873e-24)
(0.00100088 -0.000715444 7.97109e-24)
(0.00119953 -0.000868347 7.69897e-24)
(0.00141447 -0.00102902 -6.60432e-24)
(0.00164393 -0.00119467 5.85582e-24)
(0.0018854 -0.00136197 -5.36086e-24)
(0.0021358 -0.00152709 1.93659e-25)
(0.00239134 -0.0016858 0)
(0.00264765 -0.00183361 -7.43443e-24)
(0.00289994 -0.00196589 3.6301e-25)
(0.00314314 -0.00207821 3.44678e-25)
(0.00337236 -0.00216656 4.98009e-24)
(0.00358283 -0.0022279 -4.33342e-24)
(0.00377216 -0.0022595 7.13168e-24)
(0.00392969 -0.00226434 5.94523e-24)
(0.00408792 -0.00222721 0)
(-1.40125e-05 2.12987e-05 1.07514e-23)
(-3.33516e-05 5.38242e-05 -2.82155e-24)
(-4.35527e-05 7.71952e-05 0)
(-4.36133e-05 9.05163e-05 -4.84607e-24)
(-3.25079e-05 9.2905e-05 0)
(-9.16273e-06 8.35266e-05 -4.29318e-24)
(2.7515e-05 6.16147e-05 0)
(7.86087e-05 2.64887e-05 -1.14175e-23)
(0.000145166 -2.24185e-05 -6.95966e-24)
(0.000228171 -8.55296e-05 2.02505e-23)
(0.000328514 -0.000163085 6.10472e-24)
(0.000446941 -0.000255104 -1.71715e-23)
(0.00058401 -0.000361339 9.25924e-26)
(0.000740025 -0.000481227 2.4593e-23)
(0.000914973 -0.000613843 -1.05244e-25)
(0.00110844 -0.000757848 -1.69219e-23)
(0.00131955 -0.000911444 -7.48434e-24)
(0.00154688 -0.00107233 0)
(0.00178832 -0.00123766 6.17478e-24)
(0.00204106 -0.00140403 5.59774e-24)
(0.00230163 -0.00156758 -1.03724e-23)
(0.00256589 -0.00172407 0)
(0.00282912 -0.00186899 -8.15806e-24)
(0.0030862 -0.00199778 -6.80726e-24)
(0.00333183 -0.00210609 -5.83133e-24)
(0.00356098 -0.00219007 -4.64241e-24)
(0.00376887 -0.00224687 4.56948e-24)
(0.0039533 -0.00227392 -7.12891e-24)
(0.00410358 -0.00227488 3.62474e-25)
(0.00425392 -0.00223247 4.97467e-24)
(-1.32754e-05 1.9147e-05 0)
(-3.06147e-05 4.75933e-05 -1.11664e-25)
(-3.81349e-05 6.70243e-05 -1.64157e-23)
(-3.47862e-05 7.6556e-05 5.06243e-24)
(-1.94989e-05 7.53161e-05 0)
(8.84011e-06 6.24811e-05 2.27935e-23)
(5.13588e-05 3.73e-05 -3.84914e-23)
(0.000109165 -8.91693e-07 8.03099e-24)
(0.000183317 -5.26443e-05 -1.48744e-23)
(0.0002748 -0.000118361 7.12512e-24)
(0.000384478 -0.00019826 0)
(0.000513054 -0.000292332 0)
(0.000661011 -0.0004003 -5.66034e-24)
(0.000828548 -0.000521564 5.22865e-24)
(0.00101551 -0.000655158 0)
(0.00122131 -0.000799695 8.51372e-24)
(0.00144483 -0.000953328 0)
(0.00168439 -0.00111371 1.45452e-23)
(0.00193755 -0.00127791 -6.63643e-24)
(0.00220116 -0.00144251 0)
(0.00247141 -0.00160363 -5.63193e-24)
(0.00274377 -0.00175702 0)
(0.00301318 -0.00189822 1.66651e-23)
(0.00327422 -0.00202272 7.45048e-24)
(0.0035214 -0.00212633 6.46126e-24)
(0.00374957 -0.00220537 0)
(0.00395402 -0.00225724 3.01562e-25)
(0.0041327 -0.00227954 4.05483e-24)
(0.00427519 -0.00227664 -6.30339e-24)
(0.00441694 -0.00222907 -4.97292e-24)
(-1.22707e-05 1.68268e-05 1.16253e-23)
(-2.70987e-05 4.08933e-05 -3.15841e-24)
(-3.14376e-05 5.61146e-05 -2.11605e-25)
(-2.41917e-05 6.16238e-05 1.58894e-23)
(-4.2496e-06 5.65625e-05 -1.51972e-23)
(2.95392e-05 4.01258e-05 -4.63721e-24)
(7.83339e-05 1.1583e-05 -1.62746e-25)
(0.000143263 -2.9709e-05 -1.5184e-25)
(0.000225395 -8.42779e-05 0)
(0.000325705 -0.000152502 -1.43785e-23)
(0.00044503 -0.000234572 1.99977e-23)
(0.00058402 -0.00033045 -1.24949e-23)
(0.000743075 -0.000439821 1.15282e-23)
(0.000922281 -0.00056205 -5.22676e-24)
(0.00112133 -0.000696128 0)
(0.00133944 -0.000840623 9.17903e-24)
(0.00157526 -0.000993643 -2.21908e-25)
(0.00182683 -0.00115279 -7.302e-24)
(0.00209136 -0.0013151 6.74019e-24)
(0.00236539 -0.00147712 -6.23602e-24)
(0.00264471 -0.00163497 2.20768e-23)
(0.00292445 -0.00178444 -1.96522e-23)
(0.00319923 -0.00192111 8.85042e-24)
(0.00346333 -0.00204062 -3.04132e-23)
(0.00371111 -0.00213891 -1.27787e-23)
(0.00393735 -0.00221252 4.09972e-25)
(0.00413744 -0.00225912 1.01804e-23)
(0.00430952 -0.00227655 1.22157e-23)
(0.00444373 -0.00226991 -3.57667e-24)
(0.00457614 -0.00221742 0)
(-1.09877e-05 1.43607e-05 -1.20671e-23)
(-2.27726e-05 3.3789e-05 -2.2643e-25)
(-2.34102e-05 4.45713e-05 5.76152e-24)
(-1.17604e-05 4.5864e-05 5.41122e-24)
(1.33262e-05 3.68257e-05 -2.61377e-23)
(5.30349e-05 1.66763e-05 3.91901e-23)
(0.000108552 -1.52888e-05 -2.75536e-23)
(0.000181023 -5.96864e-05 4.29619e-23)
(0.000271521 -0.000117016 -1.60922e-23)
(0.000381006 -0.000187627 -2.25098e-23)
(0.00051028 -0.000271678 1.39978e-23)
(0.000659931 -0.000369095 9.61245e-26)
(0.000830271 -0.000479529 6.12787e-24)
(0.00102126 -0.000602303 0)
(0.00123242 -0.000736366 1.01123e-23)
(0.00146277 -0.000880248 -9.06475e-24)
(0.00171073 -0.00103201 1.71054e-23)
(0.001974 -0.00118922 -7.65695e-24)
(0.00224949 -0.00134888 -6.9941e-24)
(0.00253337 -0.00150753 -6.33231e-24)
(0.00282109 -0.00166133 -1.66956e-23)
(0.00310741 -0.0018061 2.04219e-23)
(0.00338665 -0.00193753 8.81409e-24)
(0.00365286 -0.00205138 -7.32984e-25)
(0.00390024 -0.00214381 -3.51006e-25)
(0.00412358 -0.00221157 0)
(0.00431837 -0.00225264 4.25203e-25)
(0.00448301 -0.00226517 -1.70055e-23)
(0.00460853 -0.00225501 3.35487e-24)
(0.00473076 -0.00219804 -5.87477e-24)
(-9.41704e-06 1.17717e-05 2.48172e-26)
(-1.76094e-05 2.63467e-05 1.92096e-23)
(-1.40083e-05 3.25032e-05 0)
(2.56775e-06 2.94239e-05 1.1476e-23)
(3.33031e-05 1.62919e-05 2.15534e-23)
(7.94132e-05 -7.64417e-06 -2.03496e-23)
(0.000142108 -4.30584e-05 -1.88067e-23)
(0.000222545 -9.05357e-05 1.34742e-23)
(0.000321795 -0.000150543 -8.44932e-24)
(0.000440797 -0.000223394 7.60578e-24)