/*--------------------------------*- C++ -*----------------------------------*\
| =========                 |                                                 |
| \\      /  F ield         | foam-extend: Open Source CFD                    |
|  \\    /   O peration     | Version:     4.0                                |
|   \\  /    A nd           | Web:         http://www.foam-extend.org         |
|    \\/     M anipulation  |                                                 |
\*---------------------------------------------------------------------------*/
FoamFile
{
    version     2.0;
    format      ascii;
    class       volScalarField;
    location    "25";
    object      p;
}
// * * * * * * * * * * * * * * * * * * * * * * * * * * * * * * * * * * * * * //

dimensions      [0 2 -2 0 0 0 0];

internalField   nonuniform List<scalar> 
36000
(
-6.11385e-06
-6.17236e-06
-6.2326e-06
-6.2858e-06
-6.3325e-06
-6.37345e-06
-6.40844e-06
-6.43699e-06
-6.45858e-06
-6.47268e-06
-6.47864e-06
-6.47562e-06
-6.4626e-06
-6.4383e-06
-6.40117e-06
-6.34934e-06
-6.28062e-06
-6.19249e-06
-6.08208e-06
-5.94602e-06
-5.78148e-06
-5.58541e-06
-5.35481e-06
-5.08707e-06
-4.78048e-06
-4.43447e-06
-4.04999e-06
-3.62983e-06
-3.17857e-06
-2.69864e-06
-6.13926e-06
-6.19706e-06
-6.25656e-06
-6.30911e-06
-6.35524e-06
-6.39568e-06
-6.43023e-06
-6.45839e-06
-6.47967e-06
-6.49353e-06
-6.49933e-06
-6.49623e-06
-6.48322e-06
-6.45904e-06
-6.42213e-06
-6.37063e-06
-6.30236e-06
-6.21479e-06
-6.1051e-06
-5.97007e-06
-5.80641e-06
-5.61129e-06
-5.38177e-06
-5.11522e-06
-4.80986e-06
-4.46507e-06
-4.08175e-06
-3.66257e-06
-3.21232e-06
-2.7318e-06
-6.18987e-06
-6.24626e-06
-6.30432e-06
-6.35558e-06
-6.40057e-06
-6.44e-06
-6.47365e-06
-6.50105e-06
-6.52171e-06
-6.53509e-06
-6.54056e-06
-6.53731e-06
-6.52432e-06
-6.50035e-06
-6.46387e-06
-6.41302e-06
-6.34563e-06
-6.25919e-06
-6.15089e-06
-6.0176e-06
-5.85587e-06
-5.66277e-06
-5.43541e-06
-5.17118e-06
-4.86823e-06
-4.52582e-06
-4.14476e-06
-3.72757e-06
-3.27919e-06
-2.79742e-06
-6.265e-06
-6.31932e-06
-6.37524e-06
-6.4246e-06
-6.46791e-06
-6.50583e-06
-6.53815e-06
-6.56442e-06
-6.58414e-06
-6.59681e-06
-6.60178e-06
-6.59828e-06
-6.58531e-06
-6.56165e-06
-6.52578e-06
-6.47588e-06
-6.40979e-06
-6.32501e-06
-6.21875e-06
-6.08785e-06
-5.92891e-06
-5.73886e-06
-5.51476e-06
-5.25395e-06
-4.95451e-06
-4.61558e-06
-4.23784e-06
-3.82351e-06
-3.37787e-06
-2.89403e-06
-6.36366e-06
-6.41528e-06
-6.46841e-06
-6.51531e-06
-6.55641e-06
-6.59236e-06
-6.62294e-06
-6.6477e-06
-6.66619e-06
-6.67789e-06
-6.6822e-06
-6.67834e-06
-6.66537e-06
-6.64207e-06
-6.60698e-06
-6.55829e-06
-6.49388e-06
-6.41126e-06
-6.3076e-06
-6.17973e-06
-6.02434e-06
-5.83825e-06
-5.61839e-06
-5.36203e-06
-5.06714e-06
-4.7327e-06
-4.35932e-06
-3.94852e-06
-3.50654e-06
-3.01962e-06
-6.48459e-06
-6.53293e-06
-6.58269e-06
-6.62657e-06
-6.665e-06
-6.69853e-06
-6.72697e-06
-6.74988e-06
-6.76683e-06
-6.77732e-06
-6.78077e-06
-6.77645e-06
-6.76342e-06
-6.74054e-06
-6.70635e-06
-6.6591e-06
-6.59668e-06
-6.51659e-06
-6.416e-06
-6.29178e-06
-6.14064e-06
-5.95929e-06
-5.74454e-06
-5.49356e-06
-5.20413e-06
-4.87504e-06
-4.50658e-06
-4.10073e-06
-3.66289e-06
-3.17177e-06
-6.62627e-06
-6.67083e-06
-6.71667e-06
-6.75706e-06
-6.79236e-06
-6.82308e-06
-6.84901e-06
-6.86974e-06
-6.88486e-06
-6.8939e-06
-6.8963e-06
-6.89137e-06
-6.87823e-06
-6.85577e-06
-6.82258e-06
-6.77692e-06
-6.7167e-06
-6.63944e-06
-6.54234e-06
-6.4223e-06
-6.27599e-06
-6.10006e-06
-5.89117e-06
-5.64634e-06
-5.36319e-06
-5.04022e-06
-4.67753e-06
-4.27702e-06
-3.84405e-06
-3.34762e-06
-6.78699e-06
-6.82733e-06
-6.8688e-06
-6.90528e-06
-6.93706e-06
-6.96459e-06
-6.98767e-06
-7.00591e-06
-7.01891e-06
-7.02626e-06
-7.02741e-06
-7.02173e-06
-7.00841e-06
-6.98633e-06
-6.95414e-06
-6.91014e-06
-6.85226e-06
-6.77808e-06
-6.68482e-06
-6.56939e-06
-6.42842e-06
-6.25841e-06
-6.05597e-06
-5.81795e-06
-5.54173e-06
-5.22548e-06
-4.86922e-06
-4.47446e-06
-4.04689e-06
-3.54401e-06
-6.9649e-06
-7.00067e-06
-7.03738e-06
-7.06959e-06
-7.09751e-06
-7.12153e-06
-7.14145e-06
-7.15691e-06
-7.16754e-06
-7.17294e-06
-7.17264e-06
-7.16606e-06
-7.15241e-06
-7.13063e-06
-7.09939e-06
-7.05706e-06
-7.00161e-06
-6.93068e-06
-6.8415e-06
-6.73095e-06
-6.59565e-06
-6.432e-06
-6.23648e-06
-6.00575e-06
-5.73692e-06
-5.42799e-06
-5.07853e-06
-4.68981e-06
-4.26808e-06
-3.75757e-06
-7.15807e-06
-7.18899e-06
-7.22064e-06
-7.24828e-06
-7.27206e-06
-7.29229e-06
-7.30878e-06
-7.32118e-06
-7.32919e-06
-7.33242e-06
-7.33046e-06
-7.3228e-06
-7.30865e-06
-7.28701e-06
-7.25665e-06
-7.21594e-06
-7.16294e-06
-7.09532e-06
-7.01033e-06
-6.90485e-06
-6.77545e-06
-6.61843e-06
-6.43014e-06
-6.20703e-06
-5.94598e-06
-5.64462e-06
-5.30224e-06
-4.91972e-06
-4.50414e-06
-3.98485e-06
-7.36452e-06
-7.39039e-06
-7.41677e-06
-7.43961e-06
-7.45903e-06
-7.47523e-06
-7.48805e-06
-7.49717e-06
-7.50231e-06
-7.50314e-06
-7.49932e-06
-7.49036e-06
-7.47551e-06
-7.45386e-06
-7.42422e-06
-7.38502e-06
-7.33441e-06
-7.27008e-06
-7.1893e-06
-7.0889e-06
-6.96553e-06
-6.81529e-06
-6.63439e-06
-6.41907e-06
-6.16594e-06
-5.87228e-06
-5.53711e-06
-5.16081e-06
-4.75153e-06
-4.22238e-06
-7.5823e-06
-7.60301e-06
-7.62396e-06
-7.64186e-06
-7.65673e-06
-7.66873e-06
-7.67767e-06
-7.68331e-06
-7.68537e-06
-7.68358e-06
-7.67767e-06
-7.66719e-06
-7.65144e-06
-7.62958e-06
-7.60044e-06
-7.56259e-06
-7.51423e-06
-7.45309e-06
-7.37647e-06
-7.28124e-06
-7.16373e-06
-7.02022e-06
-6.84669e-06
-6.63915e-06
-6.39393e-06
-6.10796e-06
-5.77995e-06
-5.40978e-06
-5.00683e-06
-4.46677e-06
-7.80953e-06
-7.82503e-06
-7.8405e-06
-7.85335e-06
-7.86357e-06
-7.87121e-06
-7.87612e-06
-7.87808e-06
-7.87687e-06
-7.87227e-06
-7.86408e-06
-7.85185e-06
-7.83495e-06
-7.81259e-06
-7.78373e-06
-7.74702e-06
-7.7007e-06
-7.64255e-06
-7.56989e-06
-7.47953e-06
-7.36785e-06
-7.23095e-06
-7.06464e-06
-6.86472e-06
-6.62725e-06
-6.34879e-06
-6.02772e-06
-5.66343e-06
-5.26673e-06
-4.71477e-06
-8.04444e-06
-8.05477e-06
-8.06475e-06
-8.07253e-06
-8.07801e-06
-8.0812e-06
-8.08195e-06
-8.08008e-06
-8.07544e-06
-8.06789e-06
-8.05721e-06
-8.04295e-06
-8.02458e-06
-8.00146e-06
-7.97264e-06
-7.93683e-06
-7.89229e-06
-7.83686e-06
-7.76787e-06
-7.68213e-06
-7.57598e-06
-7.44538e-06
-7.286e-06
-7.0934e-06
-6.86335e-06
-6.59204e-06
-6.27761e-06
-5.91877e-06
-5.52816e-06
-4.96341e-06
-8.28543e-06
-8.29066e-06
-8.29523e-06
-8.29798e-06
-8.29874e-06
-8.29744e-06
-8.29394e-06
-8.28814e-06
-8.27995e-06
-8.26923e-06
-8.25572e-06
-8.23912e-06
-8.21907e-06
-8.19497e-06
-8.16592e-06
-8.13068e-06
-8.0876e-06
-8.03456e-06
-7.96888e-06
-7.88738e-06
-7.78636e-06
-7.66167e-06
-7.50878e-06
-7.32306e-06
-7.09997e-06
-6.83531e-06
-6.52703e-06
-6.17312e-06
-5.78829e-06
-5.20996e-06
-8.53096e-06
-8.53126e-06
-8.53054e-06
-8.52833e-06
-8.52442e-06
-8.51864e-06
-8.51088e-06
-8.50104e-06
-8.48908e-06
-8.4749e-06
-8.45839e-06
-8.43934e-06
-8.4174e-06
-8.39204e-06
-8.36244e-06
-8.32743e-06
-8.28544e-06
-8.23436e-06
-8.17158e-06
-8.09388e-06
-7.99752e-06
-7.87821e-06
-7.73128e-06
-7.55184e-06
-7.33508e-06
-7.07646e-06
-6.77367e-06
-6.42406e-06
-6.04462e-06
-5.45205e-06
-8.77972e-06
-8.77527e-06
-8.76943e-06
-8.76236e-06
-8.75381e-06
-8.74356e-06
-8.7315e-06
-8.71758e-06
-8.70177e-06
-8.68409e-06
-8.66447e-06
-8.64275e-06
-8.61865e-06
-8.59174e-06
-8.56126e-06
-8.52613e-06
-8.48481e-06
-8.43527e-06
-8.3749e-06
-8.30049e-06
-8.20821e-06
-8.09367e-06
-7.95202e-06
-7.77817e-06
-7.56697e-06
-7.31366e-06
-7.01559e-06
-6.66952e-06
-6.29495e-06
-5.68764e-06
-9.03073e-06
-9.02174e-06
-9.01098e-06
-8.99922e-06
-8.98613e-06
-8.97146e-06
-8.9551e-06
-8.93706e-06
-8.91736e-06
-8.89609e-06
-8.8732e-06
-8.84859e-06
-8.8221e-06
-8.79334e-06
-8.76165e-06
-8.72601e-06
-8.68495e-06
-8.63649e-06
-8.57801e-06
-8.5063e-06
-8.41746e-06
-8.30699e-06
-8.16986e-06
-8.00076e-06
-7.79425e-06
-7.54536e-06
-7.25115e-06
-6.90776e-06
-6.5374e-06
-5.91501e-06
-9.28318e-06
-9.26989e-06
-9.25444e-06
-9.23815e-06
-9.22065e-06
-9.20163e-06
-9.18102e-06
-9.15886e-06
-9.13525e-06
-9.11028e-06
-9.08396e-06
-9.0563e-06
-9.02718e-06
-8.99631e-06
-8.96308e-06
-8.92656e-06
-8.88533e-06
-8.83743e-06
-8.7803e-06
-8.71066e-06
-8.62456e-06
-8.51737e-06
-8.3839e-06
-8.21862e-06
-8.01587e-06
-7.77035e-06
-7.47904e-06
-7.1374e-06
-6.77047e-06
-6.13276e-06
-9.53645e-06
-9.51912e-06
-9.49921e-06
-9.47857e-06
-9.45681e-06
-9.43355e-06
-9.40875e-06
-9.38249e-06
-9.35494e-06
-9.3262e-06
-9.29634e-06
-9.26546e-06
-9.23352e-06
-9.20027e-06
-9.1652e-06
-9.12742e-06
-9.08558e-06
-9.03776e-06
-8.98137e-06
-8.91314e-06
-8.82901e-06
-8.72426e-06
-8.59352e-06
-8.431e-06
-8.23097e-06
-7.98772e-06
-7.69824e-06
-7.35737e-06
-6.99303e-06
-6.33988e-06
-9.79015e-06
-9.76901e-06
-9.74488e-06
-9.72011e-06
-9.69423e-06
-9.66684e-06
-9.63792e-06
-9.60761e-06
-9.57611e-06
-9.54354e-06
-9.51007e-06
-9.47584e-06
-9.44089e-06
-9.40502e-06
-9.36781e-06
-9.32842e-06
-9.28554e-06
-9.23727e-06
-9.18104e-06
-9.1135e-06
-9.03056e-06
-8.92733e-06
-8.79832e-06
-8.63746e-06
-8.43896e-06
-8.19681e-06
-7.90799e-06
-7.56683e-06
-7.20411e-06
-6.53569e-06
-1.00441e-05
-1.00193e-05
-9.99123e-06
-9.9625e-06
-9.93266e-06
-9.90126e-06
-9.86832e-06
-9.83403e-06
-9.79858e-06
-9.76216e-06
-9.72501e-06
-9.68733e-06
-9.6492e-06
-9.61052e-06
-9.57089e-06
-9.52954e-06
-9.4852e-06
-9.43597e-06
-9.37926e-06
-9.3117e-06
-9.22909e-06
-9.12643e-06
-8.99804e-06
-8.83775e-06
-8.63948e-06
-8.39718e-06
-8.10778e-06
-7.76519e-06
-7.4029e-06
-6.71969e-06
-1.02981e-05
-1.027e-05
-1.02382e-05
-1.02057e-05
-1.0172e-05
-1.01367e-05
-1.00999e-05
-1.00617e-05
-1.00223e-05
-9.98202e-06
-9.94115e-06
-9.89993e-06
-9.8585e-06
-9.81681e-06
-9.77451e-06
-9.73088e-06
-9.68465e-06
-9.63394e-06
-9.57614e-06
-9.50781e-06
-9.42466e-06
-9.32157e-06
-9.19263e-06
-9.03171e-06
-8.83237e-06
-8.58857e-06
-8.29727e-06
-7.95213e-06
-7.5889e-06
-6.89169e-06
-1.05524e-05
-1.05211e-05
-1.04857e-05
-1.04496e-05
-1.04123e-05
-1.03733e-05
-1.03326e-05
-1.02905e-05
-1.02473e-05
-1.02032e-05
-1.01586e-05
-1.01138e-05
-1.00689e-05
-1.0024e-05
-9.97886e-06
-9.93262e-06
-9.88409e-06
-9.83139e-06
-9.77186e-06
-9.70199e-06
-9.6174e-06
-9.51283e-06
-9.3822e-06
-9.21931e-06
-9.01757e-06
-8.77088e-06
-8.47627e-06
-8.12734e-06
-7.76156e-06
-7.05183e-06
-1.0807e-05
-1.07728e-05
-1.0734e-05
-1.06945e-05
-1.06536e-05
-1.0611e-05
-1.05666e-05
-1.05207e-05
-1.04736e-05
-1.04257e-05
-1.03774e-05
-1.0329e-05
-1.02806e-05
-1.02325e-05
-1.01841e-05
-1.0135e-05
-1.00838e-05
-1.00286e-05
-9.96665e-06
-9.89447e-06
-9.8075e-06
-9.70035e-06
-9.56691e-06
-9.40067e-06
-9.19513e-06
-8.94414e-06
-8.64479e-06
-8.2909e-06
-7.92039e-06
-7.20075e-06
-1.10624e-05
-1.10253e-05
-1.09833e-05
-1.09404e-05
-1.08961e-05
-1.085e-05
-1.0802e-05
-1.07524e-05
-1.07016e-05
-1.06499e-05
-1.05979e-05
-1.05458e-05
-1.04939e-05
-1.04423e-05
-1.03906e-05
-1.03383e-05
-1.0284e-05
-1.02257e-05
-1.01608e-05
-1.00855e-05
-9.9952e-06
-9.88434e-06
-9.74685e-06
-9.57595e-06
-9.36518e-06
-9.10842e-06
-8.8028e-06
-8.44308e-06
-8.0655e-06
-7.34049e-06
-1.13187e-05
-1.12789e-05
-1.12337e-05
-1.11876e-05
-1.11401e-05
-1.10905e-05
-1.1039e-05
-1.09858e-05
-1.09313e-05
-1.0876e-05
-1.08202e-05
-1.07645e-05
-1.0709e-05
-1.06538e-05
-1.05986e-05
-1.05428e-05
-1.04849e-05
-1.04232e-05
-1.03545e-05
-1.02753e-05
-1.01807e-05
-1.00651e-05
-9.9222e-06
-9.74532e-06
-9.5279e-06
-9.26388e-06
-8.95028e-06
-8.58364e-06
-8.19535e-06
-7.47156e-06
-1.15763e-05
-1.15339e-05
-1.14856e-05
-1.14364e-05
-1.13857e-05
-1.13328e-05
-1.12778e-05
-1.1221e-05
-1.1163e-05
-1.1104e-05
-1.10446e-05
-1.09852e-05
-1.0926e-05
-1.08671e-05
-1.08082e-05
-1.07486e-05
-1.06869e-05
-1.06211e-05
-1.05481e-05
-1.0464e-05
-1.03641e-05
-1.02426e-05
-1.00931e-05
-9.90896e-06
-9.68353e-06
-9.41081e-06
-9.08738e-06
-8.71127e-06
-8.30103e-06
-7.58017e-06
-1.18356e-05
-1.17905e-05
-1.17392e-05
-1.1687e-05
-1.16331e-05
-1.15769e-05
-1.15186e-05
-1.14584e-05
-1.13968e-05
-1.13343e-05
-1.12713e-05
-1.12082e-05
-1.11453e-05
-1.10826e-05
-1.10198e-05
-1.09561e-05
-1.08901e-05
-1.08196e-05
-1.07415e-05
-1.06519e-05
-1.05456e-05
-1.04171e-05
-1.02598e-05
-1.00671e-05
-9.83251e-06
-9.55015e-06
-9.21588e-06
-8.82707e-06
-8.37357e-06
-7.65088e-06
-1.20967e-05
-1.2049e-05
-1.19948e-05
-1.19396e-05
-1.18826e-05
-1.18232e-05
-1.17615e-05
-1.1698e-05
-1.1633e-05
-1.15669e-05
-1.15003e-05
-1.14336e-05
-1.13669e-05
-1.13003e-05
-1.12334e-05
-1.11653e-05
-1.10946e-05
-1.10188e-05
-1.0935e-05
-1.08388e-05
-1.07252e-05
-1.05885e-05
-1.04223e-05
-1.022e-05
-9.97545e-06
-9.68351e-06
-9.33979e-06
-8.94167e-06
-8.44768e-06
-7.80684e-06
-1.236e-05
-1.23097e-05
-1.22525e-05
-1.21943e-05
-1.21342e-05
-1.20717e-05
-1.20068e-05
-1.19399e-05
-1.18715e-05
-1.1802e-05
-1.17319e-05
-1.16614e-05
-1.15909e-05
-1.15203e-05
-1.1449e-05
-1.13763e-05
-1.13003e-05
-1.12188e-05
-1.11283e-05
-1.10247e-05
-1.09028e-05
-1.07568e-05
-1.05804e-05
-1.03674e-05
-1.01121e-05
-9.81062e-06
-9.45947e-06
-9.06293e-06
-8.59092e-06
-8.35516e-06
-1.26255e-05
-1.25725e-05
-1.25124e-05
-1.24511e-05
-1.23881e-05
-1.23225e-05
-1.22544e-05
-1.21843e-05
-1.21125e-05
-1.20396e-05
-1.19659e-05
-1.18918e-05
-1.18173e-05
-1.17425e-05
-1.16667e-05
-1.15889e-05
-1.15072e-05
-1.14192e-05
-1.13214e-05
-1.12094e-05
-1.10781e-05
-1.09216e-05
-1.07338e-05
-1.05088e-05
-1.02414e-05
-9.92854e-06
-9.56764e-06
-9.16669e-06
-8.70178e-06
-8.52637e-06
-1.28932e-05
-1.28376e-05
-1.27744e-05
-1.27102e-05
-1.26442e-05
-1.25755e-05
-1.25043e-05
-1.2431e-05
-1.2356e-05
-1.22796e-05
-1.22024e-05
-1.21245e-05
-1.20461e-05
-1.19669e-05
-1.18862e-05
-1.18029e-05
-1.17151e-05
-1.162e-05
-1.1514e-05
-1.13927e-05
-1.12508e-05
-1.10827e-05
-1.08822e-05
-1.06438e-05
-1.03629e-05
-1.00369e-05
-9.66392e-06
-9.2529e-06
-8.77705e-06
-8.56467e-06
-1.31632e-05
-1.31048e-05
-1.30386e-05
-1.29715e-05
-1.29024e-05
-1.28307e-05
-1.27564e-05
-1.26799e-05
-1.26017e-05
-1.2522e-05
-1.24412e-05
-1.23595e-05
-1.2277e-05
-1.21932e-05
-1.21074e-05
-1.20182e-05
-1.19236e-05
-1.18206e-05
-1.17056e-05
-1.1574e-05
-1.14206e-05
-1.12395e-05
-1.10252e-05
-1.07721e-05
-1.04763e-05
-1.01356e-05
-9.74881e-06
-9.32436e-06
-8.83402e-06
-8.58367e-06
-1.34352e-05
-1.3374e-05
-1.33048e-05
-1.32346e-05
-1.31626e-05
-1.30879e-05
-1.30105e-05
-1.29309e-05
-1.28494e-05
-1.27663e-05
-1.2682e-05
-1.25964e-05
-1.25096e-05
-1.2421e-05
-1.23297e-05
-1.22342e-05
-1.21322e-05
-1.20207e-05
-1.18958e-05
-1.17529e-05
-1.15867e-05
-1.13917e-05
-1.11623e-05
-1.08935e-05
-1.05816e-05
-1.02251e-05
-9.82321e-06
-9.3839e-06
-8.87963e-06
-8.59471e-06
-1.37089e-05
-1.36449e-05
-1.35725e-05
-1.34993e-05
-1.34244e-05
-1.33467e-05
-1.32663e-05
-1.31836e-05
-1.30989e-05
-1.30124e-05
-1.29245e-05
-1.28349e-05
-1.27437e-05
-1.265e-05
-1.25528e-05
-1.24505e-05
-1.23405e-05
-1.22196e-05
-1.2084e-05
-1.19288e-05
-1.17489e-05
-1.15387e-05
-1.12931e-05
-1.10075e-05
-1.06786e-05
-1.03056e-05
-9.88805e-06
-9.4336e-06
-8.91659e-06
-8.60001e-06
-1.39839e-05
-1.3917e-05
-1.38415e-05
-1.37653e-05
-1.36873e-05
-1.36067e-05
-1.35233e-05
-1.34375e-05
-1.33496e-05
-1.32598e-05
-1.31681e-05
-1.30745e-05
-1.29786e-05
-1.28795e-05
-1.27761e-05
-1.26664e-05
-1.25477e-05
-1.24168e-05
-1.22695e-05
-1.2101e-05
-1.19063e-05
-1.168e-05
-1.14172e-05
-1.11139e-05
-1.07675e-05
-1.03775e-05
-9.94407e-06
-9.47484e-06
-8.94649e-06
-8.60141e-06
-1.42596e-05
-1.41898e-05
-1.41111e-05
-1.40319e-05
-1.3951e-05
-1.38674e-05
-1.37811e-05
-1.36923e-05
-1.36012e-05
-1.35079e-05
-1.34125e-05
-1.33146e-05
-1.32137e-05
-1.3109e-05
-1.29988e-05
-1.28811e-05
-1.27531e-05
-1.26113e-05
-1.24514e-05
-1.22688e-05
-1.20583e-05
-1.18149e-05
-1.15342e-05
-1.12125e-05
-1.0848e-05
-1.04408e-05
-9.99181e-06
-9.50846e-06
-8.97026e-06
-8.59996e-06
-1.45353e-05
-1.44626e-05
-1.43808e-05
-1.42985e-05
-1.42148e-05
-1.41283e-05
-1.4039e-05
-1.39471e-05
-1.38528e-05
-1.37561e-05
-1.36567e-05
-1.35544e-05
-1.34484e-05
-1.33376e-05
-1.32202e-05
-1.30939e-05
-1.29559e-05
-1.28024e-05
-1.2629e-05
-1.24312e-05
-1.22041e-05
-1.19428e-05
-1.16434e-05
-1.13029e-05
-1.09202e-05
-1.04959e-05
-1.00316e-05
-9.53495e-06
-8.98828e-06
-8.59577e-06
-1.48104e-05
-1.47347e-05
-1.46497e-05
-1.45645e-05
-1.44779e-05
-1.43885e-05
-1.42963e-05
-1.42014e-05
-1.41039e-05
-1.40036e-05
-1.39002e-05
-1.37933e-05
-1.36818e-05
-1.35645e-05
-1.34393e-05
-1.33039e-05
-1.31551e-05
-1.2989e-05
-1.28014e-05
-1.25876e-05
-1.23429e-05
-1.20631e-05
-1.17444e-05
-1.13848e-05
-1.09837e-05
-1.05425e-05
-1.00635e-05
-9.55446e-06
-9.00055e-06
-8.58842e-06
-1.50838e-05
-1.50052e-05
-1.49171e-05
-1.48289e-05
-1.47395e-05
-1.46473e-05
-1.45522e-05
-1.44543e-05
-1.43535e-05
-1.42496e-05
-1.41421e-05
-1.40302e-05
-1.39129e-05
-1.37887e-05
-1.36553e-05
-1.35101e-05
-1.33497e-05
-1.31703e-05
-1.29675e-05
-1.27369e-05
-1.2474e-05
-1.21749e-05
-1.18367e-05
-1.14578e-05
-1.10383e-05
-1.05806e-05
-1.00875e-05
-9.56691e-06
-9.00688e-06
-8.57727e-06
-1.53546e-05
-1.52731e-05
-1.51819e-05
-1.50909e-05
-1.49987e-05
-1.49037e-05
-1.48058e-05
-1.47049e-05
-1.46008e-05
-1.44931e-05
-1.43812e-05
-1.42643e-05
-1.41409e-05
-1.40092e-05
-1.3867e-05
-1.37113e-05
-1.35387e-05
-1.33451e-05
-1.31265e-05
-1.28783e-05
-1.25965e-05
-1.22777e-05
-1.19195e-05
-1.15213e-05
-1.10838e-05
-1.06099e-05
-1.01034e-05
-9.57214e-06
-9.007e-06
-8.56154e-06
-1.56217e-05
-1.55373e-05
-1.54431e-05
-1.53493e-05
-1.52544e-05
-1.51568e-05
-1.50561e-05
-1.49521e-05
-1.48447e-05
-1.47332e-05
-1.46168e-05
-1.44944e-05
-1.43644e-05
-1.42249e-05
-1.40733e-05
-1.39065e-05
-1.37208e-05
-1.35124e-05
-1.32771e-05
-1.30107e-05
-1.27094e-05
-1.23705e-05
-1.19924e-05
-1.15749e-05
-1.11197e-05
-1.06303e-05
-1.01111e-05
-9.56995e-06
-9.00083e-06
-8.54026e-06
-1.58838e-05
-1.57967e-05
-1.56996e-05
-1.56031e-05
-1.55056e-05
-1.54053e-05
-1.53019e-05
-1.51949e-05
-1.50841e-05
-1.49686e-05
-1.48475e-05
-1.47194e-05
-1.45825e-05
-1.44346e-05
-1.4273e-05
-1.40944e-05
-1.3895e-05
-1.36711e-05
-1.34183e-05
-1.31331e-05
-1.2812e-05
-1.24528e-05
-1.20547e-05
-1.16181e-05
-1.11456e-05
-1.06412e-05
-1.011e-05
-9.56001e-06
-8.98812e-06
-8.51275e-06
-1.61398e-05
-1.605e-05
-1.59501e-05
-1.5851e-05
-1.5751e-05
-1.56482e-05
-1.55421e-05
-1.54321e-05
-1.53178e-05
-1.51982e-05
-1.50721e-05
-1.4938e-05
-1.47938e-05
-1.46371e-05
-1.44649e-05
-1.42738e-05
-1.40601e-05
-1.38198e-05
-1.35492e-05
-1.32446e-05
-1.29033e-05
-1.25238e-05
-1.21057e-05
-1.16504e-05
-1.11611e-05
-1.06425e-05
-1.00999e-05
-9.54162e-06
-8.96692e-06
-8.47963e-06
-1.63882e-05
-1.62959e-05
-1.61933e-05
-1.60918e-05
-1.59894e-05
-1.58842e-05
-1.57754e-05
-1.56624e-05
-1.55446e-05
-1.54208e-05
-1.52895e-05
-1.5149e-05
-1.49971e-05
-1.4831e-05
-1.46476e-05
-1.44434e-05
-1.42147e-05
-1.39576e-05
-1.36684e-05
-1.33441e-05
-1.29825e-05
-1.25826e-05
-1.21448e-05
-1.16713e-05
-1.11658e-05
-1.06336e-05
-1.00804e-05
-9.5146e-06
-8.93486e-06
-8.44082e-06
-1.66277e-05
-1.65329e-05
-1.64279e-05
-1.6324e-05
-1.62194e-05
-1.61118e-05
-1.60005e-05
-1.58845e-05
-1.57631e-05
-1.56349e-05
-1.54982e-05
-1.53511e-05
-1.5191e-05
-1.5015e-05
-1.48198e-05
-1.4602e-05
-1.43576e-05
-1.40831e-05
-1.3775e-05
-1.34308e-05
-1.30487e-05
-1.26286e-05
-1.21715e-05
-1.16802e-05
-1.11592e-05
-1.06142e-05
-1.00513e-05
-9.47929e-06
-8.89341e-06
-8.39386e-06
-1.68567e-05
-1.67597e-05
-1.66523e-05
-1.65463e-05
-1.64396e-05
-1.63299e-05
-1.6216e-05
-1.60971e-05
-1.5972e-05
-1.58392e-05
-1.56969e-05
-1.55427e-05
-1.5374e-05
-1.51877e-05
-1.49802e-05
-1.47481e-05
-1.44876e-05
-1.41952e-05
-1.38679e-05
-1.35036e-05
-1.31011e-05
-1.2661e-05
-1.2185e-05
-1.16767e-05
-1.1141e-05
-1.05839e-05
-1.00123e-05
-9.43492e-06
-8.84442e-06
-8.33748e-06
-1.70738e-05
-1.69747e-05
-1.68652e-05
-1.67573e-05
-1.66486e-05
-1.65367e-05
-1.64204e-05
-1.62985e-05
-1.61697e-05
-1.60323e-05
-1.58841e-05
-1.57225e-05
-1.55448e-05
-1.53476e-05
-1.51274e-05
-1.48805e-05
-1.46034e-05
-1.42928e-05
-1.3946e-05
-1.35615e-05
-1.31389e-05
-1.26792e-05
-1.2185e-05
-1.16603e-05
-1.11107e-05
-1.05425e-05
-9.96292e-06
-9.37931e-06
-8.78748e-06
-8.27265e-06
-1.72773e-05
-1.71764e-05
-1.7065e-05
-1.69553e-05
-1.68449e-05
-1.6731e-05
-1.66123e-05
-1.64875e-05
-1.63549e-05
-1.62126e-05
-1.60582e-05
-1.5889e-05
-1.57019e-05
-1.54934e-05
-1.52599e-05
-1.49978e-05
-1.47037e-05
-1.43746e-05
-1.40083e-05
-1.36038e-05
-1.31612e-05
-1.26825e-05
-1.21707e-05
-1.16305e-05
-1.10679e-05
-1.04897e-05
-9.9036e-06
-9.31223e-06
-8.72075e-06
-8.19948e-06
-1.74656e-05
-1.73631e-05
-1.725e-05
-1.71388e-05
-1.70268e-05
-1.69111e-05
-1.67901e-05
-1.66623e-05
-1.65259e-05
-1.63787e-05
-1.62179e-05
-1.60407e-05
-1.58438e-05
-1.56236e-05
-1.53764e-05
-1.50988e-05
-1.47873e-05
-1.44396e-05
-1.40538e-05
-1.36294e-05
-1.31674e-05
-1.26702e-05
-1.21416e-05
-1.15869e-05
-1.10123e-05
-1.04252e-05
-9.83289e-06
-9.2354e-06
-8.64371e-06
-8.11713e-06
-1.76372e-05
-1.75333e-05
-1.74188e-05
-1.73063e-05
-1.71929e-05
-1.70755e-05
-1.69523e-05
-1.68216e-05
-1.66813e-05
-1.65289e-05
-1.63615e-05
-1.61761e-05
-1.5969e-05
-1.57367e-05
-1.54755e-05
-1.5182e-05
-1.48531e-05
-1.44866e-05
-1.40815e-05
-1.36376e-05
-1.31567e-05
-1.26418e-05
-1.20973e-05
-1.1529e-05
-1.09435e-05
-1.03487e-05
-9.74875e-06
-9.14892e-06
-8.55696e-06
-8.02544e-06
-1.77903e-05
-1.76853e-05
-1.75697e-05
-1.74561e-05
-1.73416e-05
-1.72227e-05
-1.70974e-05
-1.69637e-05
-1.68194e-05
-1.66618e-05
-1.64876e-05
-1.62936e-05
-1.60761e-05
-1.58314e-05
-1.55559e-05
-1.52463e-05
-1.48998e-05
-1.45148e-05
-1.40905e-05
-1.36277e-05
-1.31285e-05
-1.25967e-05
-1.20373e-05
-1.14564e-05
-1.08612e-05
-1.02596e-05
-9.65223e-06
-9.05181e-06
-8.45993e-06
-7.92408e-06
-1.79234e-05
-1.78175e-05
-1.77011e-05
-1.75867e-05
-1.74712e-05
-1.73509e-05
-1.72236e-05
-1.70871e-05
-1.69388e-05
-1.67757e-05
-1.65946e-05
-1.63917e-05
-1.61636e-05
-1.59062e-05
-1.56162e-05
-1.52904e-05
-1.49264e-05
-1.4523e-05
-1.408e-05
-1.35988e-05
-1.30821e-05
-1.25344e-05
-1.19612e-05
-1.13689e-05
-1.07653e-05
-1.0157e-05
-9.54452e-06
-8.94309e-06
-8.35219e-06
-7.81277e-06
-1.80348e-05
-1.79284e-05
-1.78114e-05
-1.76965e-05
-1.75802e-05
-1.74587e-05
-1.73295e-05
-1.71902e-05
-1.70378e-05
-1.68692e-05
-1.66809e-05
-1.64691e-05
-1.623e-05
-1.59599e-05
-1.56552e-05
-1.53132e-05
-1.49319e-05
-1.45104e-05
-1.40492e-05
-1.35502e-05
-1.30171e-05
-1.24545e-05
-1.18686e-05
-1.12662e-05
-1.06554e-05
-1.00395e-05
-9.42512e-06
-8.8234e-06
-8.23377e-06
-7.69133e-06
-1.81229e-05
-1.80162e-05
-1.7899e-05
-1.77839e-05
-1.76671e-05
-1.75446e-05
-1.74136e-05
-1.72714e-05
-1.71149e-05
-1.69408e-05
-1.67452e-05
-1.65243e-05
-1.62741e-05
-1.5991e-05
-1.56717e-05
-1.53136e-05
-1.49152e-05
-1.4476e-05
-1.39973e-05
-1.34815e-05
-1.29328e-05
-1.23565e-05
-1.17591e-05
-1.11479e-05
-1.05306e-05
-9.90842e-06
-9.29366e-06
-8.692e-06
-8.10439e-06
-7.55957e-06
-1.81862e-05
-1.80796e-05
-1.79625e-05
-1.78473e-05
-1.77302e-05
-1.76069e-05
-1.74742e-05
-1.73293e-05
-1.71687e-05
-1.69889e-05
-1.6786e-05
-1.65558e-05
-1.62945e-05
-1.59985e-05
-1.56646e-05
-1.52906e-05
-1.48754e-05
-1.44193e-05
-1.39237e-05
-1.3392e-05
-1.28289e-05
-1.224e-05
-1.16324e-05
-1.10138e-05
-1.03901e-05
-9.76443e-06
-9.14949e-06
-8.54869e-06
-7.9639e-06
-7.41736e-06
-1.82231e-05
-1.81169e-05
-1.80002e-05
-1.78853e-05
-1.77682e-05
-1.76442e-05
-1.75099e-05
-1.73623e-05
-1.71977e-05
-1.70123e-05
-1.68019e-05
-1.65624e-05
-1.629e-05
-1.59811e-05
-1.56328e-05
-1.52433e-05
-1.48119e-05
-1.43393e-05
-1.38279e-05
-1.32813e-05
-1.27049e-05
-1.21048e-05
-1.14884e-05
-1.08636e-05
-1.02336e-05
-9.607e-06
-8.99277e-06
-8.39344e-06
-7.81218e-06
-7.26456e-06
-1.82323e-05
-1.81267e-05
-1.80108e-05
-1.78965e-05
-1.77795e-05
-1.7655e-05
-1.75194e-05
-1.73692e-05
-1.72006e-05
-1.70095e-05
-1.67916e-05
-1.65429e-05
-1.62594e-05
-1.59377e-05
-1.55753e-05
-1.51707e-05
-1.47237e-05
-1.42355e-05
-1.37092e-05
-1.31489e-05
-1.25605e-05
-1.19506e-05
-1.13268e-05
-1.06964e-05
-1.00622e-05
-9.43588e-06
-8.82292e-06
-8.22605e-06
-7.64911e-06
-7.10104e-06
-1.82122e-05
-1.81077e-05
-1.79929e-05
-1.78794e-05
-1.77629e-05
-1.76381e-05
-1.75012e-05
-1.73485e-05
-1.71759e-05
-1.69792e-05
-1.6754e-05
-1.64961e-05
-1.62016e-05
-1.58674e-05
-1.54913e-05
-1.50721e-05
-1.46102e-05
-1.41075e-05
-1.35673e-05
-1.29946e-05
-1.23955e-05
-1.17771e-05
-1.11474e-05
-1.0512e-05
-9.87603e-06
-9.25073e-06
-8.63986e-06
-8.04639e-06
-7.47459e-06
-6.92674e-06
-2.18874e-06
-1.65765e-06
-1.1487e-06
-6.74526e-07
-2.46038e-07
1.2789e-07
4.40965e-07
6.91038e-07
8.79281e-07
1.00984e-06
1.08917e-06
1.12515e-06
1.12625e-06
1.10073e-06
1.05609e-06
9.98701e-07
9.33707e-07
8.65063e-07
7.95666e-07
7.27547e-07
6.62054e-07
6.00025e-07
5.41931e-07
4.87985e-07
4.38224e-07
3.92573e-07
3.5088e-07
3.12947e-07
2.78548e-07
2.47445e-07
2.19397e-07
1.94166e-07
1.71519e-07
1.51231e-07
1.33092e-07
1.16903e-07
1.02478e-07
8.96457e-08
7.82479e-08
6.81406e-08
5.91923e-08
5.12829e-08
4.43037e-08
3.81543e-08
3.2749e-08
2.80025e-08
2.38498e-08
2.02151e-08
1.70547e-08
1.42965e-08
1.19147e-08
9.84198e-09
8.05134e-09
6.51519e-09
5.12782e-09
4.05686e-09
2.8325e-09
2.28157e-09
8.30148e-10
1.18122e-09
-2.22396e-06
-1.68869e-06
-1.17763e-06
-7.01025e-07
-2.69896e-07
1.06688e-07
4.22394e-07
6.74995e-07
8.65602e-07
9.98319e-07
1.07957e-06
1.11723e-06
1.11978e-06
1.09548e-06
1.05186e-06
9.9531e-07
9.31001e-07
8.62909e-07
7.93954e-07
7.26188e-07
6.60976e-07
5.9917e-07
5.41253e-07
4.87446e-07
4.37797e-07
3.92234e-07
3.50611e-07
3.12734e-07
2.78379e-07
2.47311e-07
2.19292e-07
1.94083e-07
1.71453e-07
1.5118e-07
1.33052e-07
1.16871e-07
1.02453e-07
8.96258e-08
7.82321e-08
6.81281e-08
5.91826e-08
5.12749e-08
4.42977e-08
3.81492e-08
3.27451e-08
2.79991e-08
2.38469e-08
2.02127e-08
1.70528e-08
1.42953e-08
1.19132e-08
9.84127e-09
8.05028e-09
6.51441e-09
5.12773e-09
4.05614e-09
2.83199e-09
2.28115e-09
8.3083e-10
1.18096e-09
-2.29386e-06
-1.75027e-06
-1.23511e-06
-7.53697e-07
-3.17353e-07
6.44814e-08
3.85398e-07
6.43014e-07
8.38318e-07
9.75324e-07
1.0604e-06
1.10142e-06
1.10685e-06
1.08499e-06
1.0434e-06
9.88531e-07
9.25589e-07
8.58601e-07
7.90531e-07
7.23471e-07
6.58819e-07
5.97459e-07
5.39895e-07
4.86369e-07
4.36942e-07
3.91555e-07
3.50072e-07
3.12306e-07
2.7804e-07
2.47043e-07
2.1908e-07
1.93916e-07
1.71321e-07
1.51075e-07
1.32969e-07
1.16806e-07
1.02402e-07
8.95853e-08
7.82001e-08
6.81026e-08
5.91624e-08
5.12586e-08
4.42849e-08
3.81387e-08
3.27366e-08
2.7992e-08
2.3841e-08
2.0208e-08
1.70486e-08
1.42925e-08
1.19099e-08
9.83921e-09
8.04808e-09
6.51276e-09
5.12637e-09
4.05515e-09
2.83126e-09
2.2796e-09
8.32269e-10
1.18035e-09
-2.39709e-06
-1.84123e-06
-1.32019e-06
-8.31754e-07
-3.8777e-07
1.77758e-09
3.30367e-07
5.95389e-07
7.97643e-07
9.41009e-07
1.03178e-06
1.07778e-06
1.0875e-06
1.06929e-06
1.03074e-06
9.78375e-07
9.17478e-07
8.52142e-07
7.85398e-07
7.19395e-07
6.55584e-07
5.94892e-07
5.37858e-07
4.84752e-07
4.35658e-07
3.90536e-07
3.49264e-07
3.11664e-07
2.77531e-07
2.4664e-07
2.18761e-07
1.93664e-07
1.71122e-07
1.50918e-07
1.32846e-07
1.16708e-07
1.02324e-07
8.95242e-08
7.81518e-08
6.80642e-08
5.91318e-08
5.1234e-08
4.42653e-08
3.81227e-08
3.27237e-08
2.79812e-08
2.3832e-08
2.02008e-08
1.70422e-08
1.42879e-08
1.19052e-08
9.83583e-09
8.04478e-09
6.51023e-09
5.12424e-09
4.05356e-09
2.83016e-09
2.2772e-09
8.34319e-10
1.17944e-09
-2.53166e-06
-1.95993e-06
-1.43153e-06
-9.34053e-07
-4.80222e-07
-8.06872e-08
2.5787e-07
5.32546e-07
7.4389e-07
8.95599e-07
9.93848e-07
1.04643e-06
1.06182e-06
1.04842e-06
1.0139e-06
9.64859e-07
9.06678e-07
8.43538e-07
7.78556e-07
7.1396e-07
6.5127e-07
5.91468e-07
5.3514e-07
4.82594e-07
4.33945e-07
3.89177e-07
3.48184e-07
3.10808e-07
2.76852e-07
2.46103e-07
2.18336e-07
1.93328e-07
1.70857e-07
1.50709e-07
1.3268e-07
1.16578e-07
1.02221e-07
8.94426e-08
7.80873e-08
6.80128e-08
5.90909e-08
5.12011e-08
4.42389e-08
3.81013e-08
3.27063e-08
2.79667e-08
2.382e-08
2.0191e-08
1.70337e-08
1.42813e-08
1.18989e-08
9.83111e-09
8.0404e-09
6.50683e-09
5.12133e-09
4.05138e-09
2.8287e-09
2.27397e-09
8.36906e-10
1.1783e-09
-2.69515e-06
-2.1043e-06
-1.56732e-06
-1.05911e-06
-5.9352e-07
-1.81962e-07
1.68643e-07
4.55042e-07
6.77468e-07
8.39385e-07
9.4682e-07
1.00749e-06
1.02989e-06
1.02245e-06
9.92917e-07
9.48005e-07
8.93199e-07
8.32793e-07
7.70009e-07
7.07168e-07
6.45876e-07
5.87184e-07
5.31739e-07
4.79894e-07
4.31802e-07
3.87475e-07
3.46834e-07
3.09737e-07
2.76003e-07
2.4543e-07
2.17804e-07
1.92908e-07
1.70525e-07
1.50447e-07
1.32473e-07
1.16414e-07
1.02092e-07
8.93405e-08
7.80064e-08
6.79484e-08
5.90396e-08
5.11599e-08
4.42059e-08
3.80744e-08
3.26845e-08
2.79486e-08
2.38049e-08
2.01786e-08
1.7023e-08
1.4273e-08
1.18912e-08
9.82505e-09
8.03494e-09
6.50255e-09
5.11765e-09
4.0486e-09
2.82687e-09
2.26989e-09
8.39931e-10
1.17704e-09
-2.8847e-06
-2.27197e-06
-1.72541e-06
-1.20514e-06
-7.26238e-07
-3.00905e-07
6.35785e-08
3.63552e-07
5.98875e-07
7.72726e-07
8.90944e-07
9.61154e-07
9.91828e-07
9.9144e-07
9.6784e-07
9.27841e-07
8.77058e-07
8.19916e-07
7.59757e-07
6.99017e-07
6.394e-07
5.82041e-07
5.27655e-07
4.76651e-07
4.29227e-07
3.85431e-07
3.45212e-07
3.0845e-07
2.74983e-07
2.44623e-07
2.17165e-07
1.92403e-07
1.70126e-07
1.50132e-07
1.32225e-07
1.16218e-07
1.01937e-07
8.92178e-08
7.79093e-08
6.78711e-08
5.8978e-08
5.11104e-08
4.41661e-08
3.8042e-08
3.26582e-08
2.79268e-08
2.37869e-08
2.01636e-08
1.70103e-08
1.42627e-08
1.18819e-08
9.81764e-09
8.0284e-09
6.49738e-09
5.11318e-09
4.04523e-09
2.82468e-09
2.26497e-09
8.4331e-10
1.17573e-09
-3.09708e-06
-2.4603e-06
-1.90344e-06
-1.37017e-06
-8.76731e-07
-4.36206e-07
-5.63016e-08
2.58855e-07
5.0869e-07
6.9604e-07
8.26514e-07
9.07611e-07
9.47767e-07
9.55491e-07
9.38722e-07
9.04398e-07
8.58272e-07
8.04913e-07
7.47804e-07
6.89507e-07
6.31841e-07
5.76035e-07
5.22885e-07
4.72863e-07
4.26219e-07
3.83043e-07
3.43317e-07
3.06947e-07
2.73792e-07
2.4368e-07
2.1642e-07
1.91813e-07
1.6966e-07
1.49764e-07
1.31934e-07
1.15989e-07
1.01756e-07
8.90747e-08
7.7796e-08
6.7781e-08
5.89061e-08
5.10526e-08
4.41197e-08
3.80042e-08
3.26275e-08
2.79013e-08
2.37658e-08
2.0146e-08
1.69954e-08
1.42505e-08
1.18712e-08
9.80889e-09
8.02078e-09
6.49134e-09
5.10794e-09
4.04126e-09
2.82215e-09
2.25923e-09
8.47062e-10
1.17434e-09
-3.32883e-06
-2.66643e-06
-2.09881e-06
-1.55203e-06
-1.0432e-06
-5.86419e-07
-1.89862e-07
1.41822e-07
4.07562e-07
6.09799e-07
7.53864e-07
8.47094e-07
8.97863e-07
9.14698e-07
9.05626e-07
8.77713e-07