/*--------------------------------*- C++ -*----------------------------------*\
| =========                 |                                                 |
| \\      /  F ield         | foam-extend: Open Source CFD                    |
|  \\    /   O peration     | Version:     4.0                                |
|   \\  /    A nd           | Web:         http://www.foam-extend.org         |
|    \\/     M anipulation  |                                                 |
\*---------------------------------------------------------------------------*/
FoamFile
{
    version     2.0;
    format      ascii;
    class       surfaceScalarField;
    location    "25";
    object      phi;
}
// * * * * * * * * * * * * * * * * * * * * * * * * * * * * * * * * * * * * * //

dimensions      [0 3 -1 0 0 0 0];

internalField   nonuniform List<scalar> 
71520
(
-2.92301e-10
2.90861e-10
1.43943e-12
-1.16266e-09
8.66131e-10
4.23351e-12
-2.63561e-09
1.46587e-09
7.07985e-12
-4.73041e-09
2.08486e-09
9.9338e-12
-7.45972e-09
2.71657e-09
1.27414e-11
-1.08282e-08
3.35304e-09
1.54388e-11
-1.48309e-08
3.98478e-09
1.79513e-11
-1.94516e-08
4.60052e-09
2.01926e-11
-2.46608e-08
5.18709e-09
2.20641e-11
-3.04134e-08
5.72913e-09
2.34539e-11
-3.66465e-08
6.20885e-09
2.42362e-11
-4.32766e-08
6.60584e-09
2.42711e-11
-5.01967e-08
6.8967e-09
2.34041e-11
-5.72729e-08
7.05474e-09
2.14663e-11
-6.43408e-08
7.04966e-09
1.82744e-11
-7.12017e-08
6.84721e-09
1.36328e-11
-7.76179e-08
6.40887e-09
7.33451e-12
-8.33087e-08
5.69161e-09
-8.34853e-13
-8.79453e-08
4.64776e-09
-1.10902e-11
-9.11474e-08
3.22566e-09
-2.36151e-11
-9.24881e-08
1.37939e-09
-3.86303e-11
-9.14687e-08
-9.63182e-10
-5.6292e-11
-8.75308e-08
-3.86113e-09
-7.67506e-11
-8.00586e-08
-7.37215e-09
-1.00055e-10
-6.83813e-08
-1.15511e-08
-1.26175e-10
-5.17815e-08
-1.64448e-08
-1.54968e-10
-2.95092e-08
-2.20862e-08
-1.86164e-10
-8.00538e-10
-2.84892e-08
-2.19404e-10
3.50785e-08
-3.56257e-08
-2.53357e-10
-4.34858e-08
7.88525e-08
-2.88245e-10
-2.88714e-10
5.79576e-10
-1.14847e-09
1.72588e-09
-2.60352e-09
2.92092e-09
-4.67288e-09
4.15422e-09
-7.36901e-09
5.41269e-09
-1.06963e-08
6.68038e-09
-1.46498e-08
7.93819e-09
-1.92128e-08
9.16357e-09
-2.43558e-08
1.03301e-08
-3.00335e-08
1.14068e-08
-3.61828e-08
1.23582e-08
-4.272e-08
1.31431e-08
-4.9538e-08
1.37147e-08
-5.65026e-08
1.40194e-08
-6.34493e-08
1.39964e-08
-7.01791e-08
1.35769e-08
-7.64542e-08
1.2684e-08
-8.19939e-08
1.12313e-08
-8.64698e-08
9.12364e-09
-8.95027e-08
6.25857e-09
-9.06576e-08
2.53434e-09
-8.94427e-08
-2.17807e-09
-8.53017e-08
-8.0022e-09
-7.76191e-08
-1.50547e-08
-6.57259e-08
-2.34444e-08
-4.89069e-08
-3.32638e-08
-2.64158e-08
-4.45773e-08
2.50495e-09
-5.741e-08
3.85942e-08
-7.1715e-08
-8.7454e-08
8.25625e-08
-2.81614e-10
8.6119e-10
-1.12034e-09
2.56461e-09
-2.5399e-09
4.34048e-09
-4.55881e-09
6.17314e-09
-7.18907e-09
8.04295e-09
-1.04347e-08
9.92601e-09
-1.42902e-08
1.17937e-08
-1.87387e-08
1.36121e-08
-2.37501e-08
1.53415e-08
-2.92789e-08
1.69356e-08
-3.52616e-08
1.83409e-08
-4.16142e-08
1.94957e-08
-4.8229e-08
2.03295e-08
-5.49716e-08
2.0762e-08
-6.1677e-08
2.07017e-08
-6.81458e-08
2.00457e-08
-7.41399e-08
1.86781e-08
-7.93784e-08
1.64698e-08
-8.35327e-08
1.3278e-08
-8.62247e-08
8.95061e-09
-8.70166e-08
3.32621e-09
-8.54164e-08
-3.77827e-09
-8.08719e-08
-1.25467e-08
-7.27713e-08
-2.31553e-08
-6.04489e-08
-3.57668e-08
-4.31945e-08
-5.05182e-08
-2.0268e-08
-6.75038e-08
9.08106e-09
-8.6759e-08
4.55781e-08
-1.08212e-07
-1.31805e-07
8.99287e-08
-2.71159e-10
1.13235e-09
-1.07889e-09
3.37234e-09
-2.4461e-09
5.70769e-09
-4.39055e-09
8.11758e-09
-6.92352e-09
1.05759e-08
-1.00484e-08
1.30509e-08
-1.37591e-08
1.55043e-08
-1.80381e-08
1.78911e-08
-2.28548e-08
2.01582e-08
-2.81631e-08
2.22439e-08
-3.3899e-08
2.40767e-08
-3.99778e-08
2.55745e-08
-4.62913e-08
2.66431e-08
-5.27045e-08
2.71752e-08
-5.90517e-08
2.70489e-08
-6.5133e-08
2.6127e-08
-7.07097e-08
2.42548e-08
-7.55005e-08
2.12606e-08
-7.91774e-08
1.69549e-08
-8.13612e-08
1.11344e-08
-8.16145e-08
3.5795e-09
-7.94456e-08
-5.94723e-09
-7.4305e-08
-1.76872e-08
-6.55858e-08
-3.18745e-08
-5.26283e-08
-4.87243e-08
-3.47297e-08
-6.84168e-08
-1.11592e-08
-9.10743e-08
1.88203e-08
-1.16738e-07
5.59191e-08
-1.45311e-07
-1.76718e-07
1.00832e-07
-2.57574e-10
1.38992e-09
-1.025e-09
4.13976e-09
-2.32406e-09
7.00675e-09
-4.17149e-09
9.96501e-09
-6.57762e-09
1.29821e-08
-9.54491e-09
1.60182e-08
-1.30664e-08
1.90258e-08
-1.71239e-08
2.19486e-08
-2.16859e-08
2.47202e-08
-2.67056e-08
2.72636e-08
-3.21181e-08
2.94893e-08
-3.78381e-08
3.12945e-08
-4.37565e-08
3.25615e-08
-4.97374e-08
3.3156e-08
-5.56143e-08
3.29259e-08
-6.11866e-08
3.16992e-08
-6.62149e-08
2.92832e-08
-7.04176e-08
2.54632e-08
-7.34666e-08
2.00039e-08
-7.49817e-08
1.26496e-08
-7.45271e-08
3.12486e-09
-7.16125e-08
-8.86181e-09
-6.56917e-08
-2.3608e-08
-5.61631e-08
-4.14031e-08
-4.23748e-08
-6.25126e-08
-2.36339e-08
-8.71577e-08
7.78949e-10
-1.15487e-07
3.1578e-08
-1.47538e-07
6.94626e-08
-1.83195e-07
-2.2236e-07
1.15105e-07
-2.41145e-10
1.63107e-09
-9.59762e-10
4.85838e-09
-2.17624e-09
8.22323e-09
-3.90598e-09
1.16947e-08
-6.15805e-09
1.52341e-08
-8.93378e-09
1.87939e-08
-1.22251e-08
2.23171e-08
-1.60127e-08
2.57362e-08
-2.02642e-08
2.89717e-08
-2.49316e-08
3.1931e-08
-2.99492e-08
3.45068e-08
-3.52304e-08
3.65757e-08
-4.06653e-08
3.79963e-08
-4.61168e-08
3.86076e-08
-5.14176e-08
3.82267e-08
-5.63659e-08
3.66475e-08
-6.07219e-08
3.36392e-08
-6.42033e-08
2.89446e-08
-6.64813e-08
2.22818e-08
-6.71758e-08
1.33441e-08
-6.58526e-08
1.80172e-09
-6.20245e-08
-1.26899e-08
-5.5149e-08
-3.04836e-08
-4.46312e-08
-5.19209e-08
-2.98288e-08
-7.7315e-08
-1.00616e-08
-1.06925e-07
1.53695e-08
-1.40918e-07
4.71685e-08
-1.79337e-07
8.60052e-08
-2.22032e-07
-2.68881e-07
1.32526e-07
-2.22213e-10
1.85328e-09
-8.84513e-10
5.52068e-09
-2.00557e-09
9.34429e-09
-3.59916e-09
1.32883e-08
-5.67281e-09
1.73078e-08
-8.22638e-09
2.13475e-08
-1.12504e-08
2.53412e-08
-1.47243e-08
2.92101e-08
-1.86143e-08
3.28617e-08
-2.28713e-08
3.61879e-08
-2.7428e-08
3.90636e-08
-3.21969e-08
4.13446e-08
-3.70665e-08
4.28659e-08
-4.18987e-08
4.34398e-08
-4.65249e-08
4.28529e-08
-5.07425e-08
4.08651e-08
-5.43105e-08
3.72071e-08
-5.69457e-08
3.15799e-08
-5.83188e-08
2.36549e-08
-5.80505e-08
1.30757e-08
-5.57092e-08
-5.39591e-10
-5.08104e-08
-1.75887e-08
-4.28174e-08
-3.84765e-08
-3.11435e-08
-6.35948e-08
-1.51578e-08
-9.33007e-08
5.80393e-09
-1.27887e-07
3.24212e-08
-1.67535e-07
6.53751e-08
-2.1229e-07
1.05308e-07
-2.61965e-07
-3.16409e-07
1.52836e-07
-2.01163e-10
2.05444e-09
-8.00734e-10
6.12025e-09
-1.81536e-09
1.03589e-08
-3.25685e-09
1.47298e-08
-5.13089e-09
1.91818e-08
-7.43556e-09
2.36522e-08
-1.01597e-08
2.80653e-08
-1.32811e-08
3.23315e-08
-1.67643e-08
3.6345e-08
-2.05587e-08
3.99823e-08
-2.45955e-08
4.31004e-08
-2.87854e-08
4.55345e-08
-3.30157e-08
4.70962e-08
-3.71468e-08
4.75709e-08
-4.10089e-08
4.67151e-08
-4.43979e-08
4.42541e-08
-4.70713e-08
3.98805e-08
-4.87453e-08
3.32539e-08
-4.90904e-08
2.40001e-08
-4.77285e-08
1.17138e-08
-4.42309e-08
-4.0372e-09
-3.81172e-08
-2.37024e-08
-2.88576e-08
-4.77362e-08
-1.58749e-08
-7.65775e-08
1.44803e-09
-1.10624e-07
2.37545e-08
-1.50193e-07
5.17043e-08
-1.95485e-07
8.59507e-08
-2.46537e-07
1.27102e-07
-3.03116e-07
-3.65048e-07
1.7574e-07
-1.78407e-10
2.23285e-09
-7.10027e-10
6.65187e-09
-1.60915e-09
1.1258e-08
-2.88532e-09
1.6006e-08
-4.54202e-09
2.08385e-08
-6.5752e-09
2.56853e-08
-8.97167e-09
3.04618e-08
-1.17072e-08
3.5067e-08
-1.47445e-08
3.93823e-08
-1.80309e-08
4.32687e-08
-2.14959e-08
4.65654e-08
-2.50484e-08
4.90869e-08
-2.85739e-08
5.06218e-08
-3.19313e-08
5.09283e-08
-3.49489e-08
4.97326e-08
-3.74208e-08
4.6726e-08
-3.91036e-08
4.15633e-08
-3.97125e-08
3.38628e-08
-3.89184e-08
2.3206e-08
-3.63446e-08
9.14003e-09
-3.15657e-08
-8.81613e-09
-2.41069e-08
-3.11613e-08
-1.34461e-08
-5.8397e-08
9.81971e-10
-9.10055e-08
1.97764e-08
-1.29418e-07
4.35619e-08
-1.73979e-07
7.2971e-08
-2.24894e-07
1.08626e-07
-2.82191e-07
1.51091e-07
-3.45581e-07
-4.14875e-07
2.00918e-07
-1.54374e-10
2.38723e-09
-6.14058e-10
7.11155e-09
-1.39067e-09
1.20347e-08
-2.49113e-09
1.71065e-08
-3.91636e-09
2.22637e-08
-5.65985e-09
2.74288e-08
-7.70599e-09
3.25079e-08
-1.00282e-08
3.73893e-08
-1.25869e-08
4.1941e-08
-1.53272e-08
4.6009e-08
-1.81764e-08
4.94145e-08
-2.10413e-08
5.19519e-08
-2.38057e-08
5.33862e-08
-2.63262e-08
5.34488e-08
-2.84288e-08
5.18352e-08
-2.99059e-08
4.82031e-08
-3.0513e-08
4.21704e-08
-2.99649e-08
3.33147e-08
-2.79329e-08
2.1174e-08
-2.40421e-08
5.24931e-09
-1.78713e-08
-1.4987e-08
-8.95188e-09
-4.00807e-08
3.22833e-09
-7.05772e-08
1.92202e-08
-1.06997e-07
3.96052e-08
-1.49803e-07
6.49838e-08
-1.99357e-07
9.59579e-08
-2.55869e-07
1.33112e-07
-3.19345e-07
1.76961e-07
-3.8943e-07
-4.65941e-07
2.28027e-07
-1.29494e-10
2.51672e-09
-5.14504e-10
7.49656e-09
-1.16365e-09
1.26838e-08
-2.08087e-09
1.80237e-08
-3.26419e-09
2.34471e-08
-4.70424e-09
2.88689e-08
-6.38262e-09
3.41863e-08
-8.27005e-09
3.92767e-08
-1.03242e-08
4.39952e-08
-1.24877e-08
4.81724e-08
-1.46851e-08
5.16119e-08
-1.68214e-08
5.40881e-08
-1.87775e-08
5.53423e-08
-2.04073e-08
5.50786e-08
-2.15347e-08
5.29627e-08
-2.19504e-08
4.86188e-08
-2.14087e-08
4.16287e-08
-1.96241e-08
3.15302e-08
-1.62688e-08
1.78186e-08
-1.097e-08
-4.95018e-11
-3.31135e-09
-2.26456e-08
7.16785e-09
-5.05599e-08
2.09685e-08
-8.43779e-08
3.86261e-08
-1.24655e-07
6.07013e-08
-1.71878e-07
8.7767e-08
-2.26423e-07
1.2039e-07
-2.88491e-07
1.59109e-07
-3.58064e-07
2.04387e-07
-4.34709e-07
-5.18267e-07
2.56713e-07
-1.04185e-10
2.6209e-09
-4.12995e-10
7.80537e-09
-9.31733e-10
1.32025e-08
-1.66104e-09
1.8753e-08
-2.59563e-09
2.43817e-08
-3.72291e-09
2.99962e-08
-5.0213e-09
3.54847e-08
-6.45837e-09
4.07138e-08
-7.9888e-09
4.55256e-08
-9.5521e-09
4.97357e-08
-1.10703e-08
5.31301e-08
-1.24455e-08
5.54633e-08
-1.35552e-08
5.6452e-08
-1.42506e-08
5.5774e-08
-1.43532e-08
5.30653e-08
-1.36523e-08
4.79179e-08
-1.19009e-08
3.98773e-08
-8.81325e-09
2.84425e-08
-4.06231e-09
1.30677e-08
2.72061e-09
-6.83242e-09
1.19473e-08
-3.18722e-08
2.40691e-08
-6.26817e-08
3.95746e-08
-9.98835e-08
5.8982e-08
-1.44062e-07
8.28279e-08
-1.95724e-07
1.11654e-07
-2.55248e-07
1.45986e-07
-3.22824e-07
1.86311e-07
-3.9839e-07
2.33036e-07
-4.81434e-07
-5.71843e-07
2.86613e-07
-7.88311e-11
2.69974e-09
-3.1105e-10
8.03759e-09
-6.98344e-10
1.35898e-08
-1.23772e-09
1.92924e-08
-1.92026e-09
2.50642e-08
-2.72971e-09
3.08056e-08
-3.64089e-09
3.63959e-08
-4.61787e-09
4.16908e-08
-5.61186e-09
4.65196e-08
-6.5591e-09
5.0683e-08
-7.3787e-09
5.39497e-08
-7.96847e-09
5.6053e-08
-8.20256e-09
5.66861e-08
-7.92955e-09
5.5501e-08
-6.96899e-09
5.21047e-08
-5.10788e-09
4.60568e-08
-2.09812e-09
3.68675e-08
2.34618e-09
2.39982e-08
8.55037e-09
6.8635e-09
1.68796e-08
-1.51617e-08
2.7739e-08
-4.27315e-08
4.15705e-08
-7.65132e-08
5.88486e-08
-1.17162e-07
8.00713e-08
-1.65285e-07
1.05749e-07
-2.21402e-07
1.36387e-07
-2.85886e-07
1.72464e-07
-3.58902e-07
2.14412e-07
-4.40337e-07
2.62576e-07
-5.29599e-07
-6.26632e-07
3.17365e-07
-5.37645e-11
2.7535e-09
-2.09987e-10
8.19381e-09
-4.66492e-10
1.38463e-08
-8.1637e-10
1.96422e-08
-1.24674e-09
2.54946e-08
-1.73733e-09
3.12962e-08
-2.25888e-09
3.69174e-08
-2.77144e-09
4.22033e-08
-3.22268e-09
4.69709e-08
-3.54529e-09
5.10056e-08
-3.65361e-09
5.4058e-08
-3.44128e-09
5.58407e-08
-2.7798e-09
5.60246e-08
-1.51486e-09
5.4236e-08
5.36904e-10
5.0053e-08
3.59054e-09
4.30031e-08
7.89532e-09
3.25628e-08
1.37369e-08
1.81566e-08
2.14387e-08
-8.38344e-10
3.13619e-08
-2.50848e-08
4.39041e-08
-5.52738e-08
5.94967e-08
-9.21058e-08
7.85977e-08
-1.36263e-07
1.01683e-07
-1.8837e-07
1.29232e-07
-2.48951e-07
1.61712e-07
-3.18367e-07
1.99549e-07
-3.96738e-07
2.43111e-07
-4.83899e-07
2.92679e-07
-5.79167e-07
-6.82565e-07
3.48613e-07
-2.92362e-11
2.78274e-09
-1.10873e-10
8.27545e-09
-2.38653e-10
1.39741e-08
-4.01485e-10
1.98051e-08
-5.82264e-10
2.56754e-08
-7.56472e-10
3.14704e-08
-8.90566e-10
3.70515e-08
-9.40187e-10
4.22529e-08
-8.48174e-10
4.68788e-08
-5.42345e-10
5.06997e-08
6.68698e-11
5.34488e-08
1.08913e-09
5.48184e-08
2.65685e-09
5.44569e-08
4.928e-09
5.19649e-08
8.08881e-09
4.68922e-08
1.23564e-08
3.87356e-08
1.79812e-08
2.69379e-08
2.52487e-08
1.08891e-08
3.44799e-08
-1.00695e-08
4.6031e-08
-3.66359e-08
6.02916e-08
-6.95345e-08
7.76805e-08
-1.09495e-07
9.86378e-08
-1.5722e-07
1.23614e-07
-2.13347e-07
1.53056e-07
-2.78393e-07
1.87387e-07
-3.52697e-07
2.26972e-07
-4.36322e-07
2.72117e-07
-5.29045e-07
3.2303e-07
-6.3008e-07
-7.39546e-07
3.80011e-07
-5.58597e-12
2.78832e-09
-1.4986e-11
8.28485e-09
-1.76045e-11
1.39767e-08
2.11905e-12
1.97853e-08
6.58662e-11
2.56116e-08
2.02798e-10
3.13335e-08
4.51111e-10
3.68032e-08
8.59873e-10
4.18442e-08
1.4912e-09
4.62475e-08
2.42225e-09
4.97687e-08
3.74703e-09
5.2124e-08
5.57966e-09
5.29858e-08
8.05668e-09
5.19799e-08
1.13397e-08
4.86818e-08
1.56181e-08
4.26138e-08
2.11113e-08
3.32424e-08
2.80707e-08
1.99785e-08
3.67814e-08
2.17842e-09
4.75614e-08
-2.08495e-08
6.07613e-08
-4.98358e-08
7.67616e-08
-8.55348e-08
9.59669e-08
-1.287e-07
1.18797e-07
-1.8005e-07
1.45675e-07
-2.40225e-07
1.77012e-07
-3.0973e-07
2.13178e-07
-3.88863e-07
2.5448e-07
-4.77624e-07
3.01154e-07
-5.75719e-07
3.53326e-07
-6.82253e-07
-7.97453e-07
4.11232e-07
1.68429e-11
2.77148e-09
7.64579e-11
8.22524e-09
1.94014e-10
1.38592e-08
3.8982e-10
1.95895e-08
6.90463e-10
2.5311e-08
1.13015e-09
3.08938e-08
1.75226e-09
3.61811e-08
2.61112e-09
4.09853e-08
3.77386e-09
4.50848e-08
5.32242e-09
4.82201e-08
7.35601e-09
5.00904e-08
9.99355e-09
5.03483e-08
1.33761e-08
4.85974e-08
1.76692e-08
4.43887e-08
2.30656e-08
3.72174e-08
2.9787e-08
2.6521e-08
3.8086e-08
1.16795e-08
4.82464e-08
-7.98206e-09
6.05831e-08
-3.31861e-08
7.54403e-08
-6.4693e-08
9.31882e-08
-1.03283e-07
1.14215e-07
-1.49727e-07
1.38919e-07
-2.04754e-07
1.67692e-07
-2.68998e-07
2.00905e-07
-3.42943e-07
2.38871e-07
-4.26829e-07
2.81835e-07
-5.20587e-07
3.29959e-07
-6.23842e-07
3.83283e-07
-7.35577e-07
-8.56136e-07
4.41967e-07
3.80529e-11
2.73343e-09
1.63263e-10
8.10003e-09
3.95561e-10
1.36269e-08
7.60215e-10
1.92249e-08
1.28896e-09
2.47822e-08
2.02133e-09
3.01614e-08
3.00612e-09
3.51963e-08
4.30313e-09
3.96883e-08
5.98494e-09
4.3403e-08
8.1388e-09
4.60663e-08
1.08696e-08
4.73597e-08
1.43012e-08
4.69167e-08
1.85794e-08
4.43191e-08
2.38742e-08
3.90939e-08
3.03816e-08
3.071e-08
3.83259e-08
1.85767e-08
4.79605e-08
2.04492e-09
5.95677e-08
-1.95893e-08
7.34586e-08
-4.7077e-08
8.99702e-08
-8.12047e-08
1.09461e-07
-1.22773e-07
1.32301e-07
-1.72567e-07
1.58863e-07
-2.31316e-07
1.89507e-07
-2.99642e-07
2.24557e-07
-3.77993e-07
2.64268e-07
-4.6654e-07
3.08817e-07
-5.65137e-07
3.58289e-07
-6.73313e-07
4.12634e-07
-7.89923e-07
-9.15426e-07
4.71924e-07
5.79616e-11
2.67546e-09
2.45096e-10
7.91289e-09
5.86208e-10
1.32858e-08
1.11169e-09
1.86994e-08
1.85862e-09
2.40353e-08
2.87206e-09
2.9148e-08
4.2065e-09
3.38619e-08
5.92749e-09
3.79673e-08
8.11336e-09
4.12171e-08
1.08573e-08
4.33224e-08
1.42698e-08
4.39472e-08
1.84803e-08
4.27062e-08
2.36396e-08
3.91598e-08
2.99221e-08
3.28114e-08
3.75275e-08
2.31045e-08
4.66825e-08
9.4218e-09
5.76408e-08
-8.91341e-09
7.06832e-08
-3.26316e-08
8.61163e-08
-6.25101e-08
1.04269e-07
-9.93572e-08
1.25485e-07
-1.43989e-07
1.50116e-07
-1.97198e-07
1.78507e-07
-2.59708e-07
2.10982e-07
-3.32116e-07
2.4781e-07
-4.14821e-07
2.89189e-07
-5.07918e-07
3.35226e-07
-6.11174e-07
3.8592e-07
-7.24008e-07
4.41135e-07
-8.45138e-07
-9.75129e-07
5.00839e-07
7.65321e-11
2.59893e-09
3.21788e-10
7.66764e-09
7.65531e-10
1.2842e-08
1.44339e-09
1.80215e-08
2.39795e-09
2.30807e-08
3.67999e-09
2.7866e-08
5.34989e-09
3.2192e-08
7.47921e-09
3.5838e-08
1.01523e-08
3.8544e-08
1.34688e-08
4.00059e-08
1.75449e-08
3.98711e-08
2.25158e-08
3.77352e-08
2.85377e-08
3.31379e-08
3.57896e-08
2.55596e-08
4.44748e-08
1.44193e-08
5.48223e-08
-9.25698e-10
6.7086e-08
-2.1177e-08
8.15446e-08
-4.70902e-08
9.84994e-08
-7.9465e-08
1.18269e-07
-1.19127e-07
1.41184e-07
-1.66904e-07
1.67571e-07
-2.23586e-07
1.97747e-07
-2.89883e-07
2.31993e-07
-3.66362e-07
2.70523e-07
-4.53352e-07
3.13473e-07
-5.50869e-07
3.60877e-07
-6.58578e-07
4.12649e-07
-7.7578e-07
4.68563e-07
-9.01051e-07
-1.03504e-06
5.28471e-07
9.37824e-11
2.50515e-09
3.93381e-10
7.36804e-09
9.33569e-10
1.23018e-08
1.7553e-09
1.71998e-08
2.90677e-09
2.19293e-08
4.44462e-09
2.63281e-08
6.43531e-09
3.02013e-08
8.95658e-09
3.33167e-08
1.20992e-08
3.54014e-08
1.59692e-08
3.61359e-08
2.06889e-08
3.51513e-08
2.63996e-08
3.20245e-08
3.32629e-08
2.62746e-08
4.14625e-08
1.736e-08
5.12056e-08
4.67625e-09
6.27227e-08
-1.24428e-08
7.62677e-08
-3.47221e-08
9.21171e-08
-6.29396e-08
1.10566e-07
-9.79136e-08
1.31921e-07
-1.40483e-07
1.56495e-07
-1.91478e-07
1.84592e-07
-2.51683e-07
2.16494e-07
-3.21784e-07
2.52435e-07
-4.02304e-07
2.92573e-07
-4.93489e-07
3.36978e-07
-5.95273e-07
3.85607e-07
-7.07207e-07
4.38289e-07
-8.28462e-07
4.9471e-07
-9.57472e-07
-1.09492e-06
5.54596e-07
1.09779e-10
2.39537e-09
4.60104e-10
7.01771e-09
1.09078e-09
1.16712e-08
2.04813e-09
1.62425e-08
3.38603e-09
2.05914e-08
5.16708e-09
2.45471e-08
7.46395e-09
2.79044e-08
1.03607e-08
3.04199e-08
1.39549e-08
3.18072e-08
1.83589e-08
3.1732e-08
2.37015e-08
2.98087e-08
3.01301e-08
2.55959e-08
3.78118e-08
1.85929e-08
4.69352e-08
8.23654e-09
5.77108e-08
-6.09937e-09
7.03708e-08
-2.51028e-08
8.51691e-08
-4.95204e-08
1.02378e-07
-8.01489e-08
1.22286e-07
-1.17821e-07
1.45186e-07
-1.63383e-07
1.71372e-07
-2.17663e-07
2.0112e-07
-2.81431e-07
2.34676e-07
-3.5534e-07
2.72221e-07
-4.39849e-07
3.13854e-07
-5.35122e-07
3.59577e-07
-6.40996e-07
4.09268e-07
-7.56898e-07
4.62671e-07
-8.81865e-07
5.19392e-07
-1.01419e-06
-1.15455e-06
5.79018e-07
1.24629e-10
2.27074e-09
5.2235e-10
6.61999e-09
1.23799e-09
1.09555e-08
2.32324e-09
1.51572e-08
3.83771e-09
1.90769e-08
5.85002e-09
2.25348e-08
8.43908e-09
2.53153e-08
1.16955e-08
2.71635e-08
1.57236e-08
2.77791e-08
2.06423e-08
2.68133e-08
2.65869e-08
2.38641e-08
3.3711e-08
1.84719e-08
4.21874e-08
1.01165e-08
5.22093e-08
-1.78534e-09
6.39901e-08
-1.78802e-08
7.77638e-08
-3.88765e-08
9.37833e-08
-6.55398e-08
1.12317e-07
-9.86823e-08
1.33642e-07
-1.39147e-07
1.5804e-07
-1.87781e-07
1.8578e-07
-2.45404e-07
2.1711e-07
-3.12761e-07
2.52233e-07
-3.90463e-07
2.91275e-07
-4.78891e-07
3.34274e-07
-5.78121e-07
3.8116e-07
-6.87882e-07
4.31732e-07
-8.0747e-07
4.85649e-07
-9.35782e-07
5.42449e-07
-1.07099e-06
-1.21367e-06
6.01567e-07
1.38473e-10
2.13227e-09
5.80636e-10
6.17783e-09
1.3763e-09
1.01599e-08
2.58251e-09
1.3951e-08
4.26458e-09
1.73948e-08
6.49717e-09
2.03022e-08
9.3655e-09
2.2447e-08
1.29669e-08
2.35621e-08
1.74122e-08
2.33338e-08
2.2827e-08
2.13985e-08
2.93534e-08
1.73377e-08
3.71509e-08
1.06743e-08
4.63981e-08
8.69344e-10
5.72922e-08
-1.26794e-08
7.00498e-08
-3.06378e-08
8.49059e-08
-5.37327e-08
1.02111e-07
-8.27454e-08
1.21929e-07
-1.185e-07
1.44626e-07
-1.61843e-07
1.70465e-07
-2.1362e-07
1.99694e-07
-2.74632e-07
2.32525e-07
-3.45592e-07
2.69116e-07
-4.27054e-07
3.09534e-07
-5.19309e-07
3.53755e-07
-6.22342e-07
4.01632e-07
-7.35759e-07
4.52883e-07
-8.58722e-07
5.07086e-07
-9.89984e-07
5.63727e-07
-1.12763e-06
-1.27202e-06
6.22079e-07
1.51473e-10
1.9808e-09
6.35574e-10
5.69373e-09
1.50703e-09
9.2884e-09
2.82819e-09
1.26298e-08
4.67004e-09
1.5553e-08
7.11322e-09
1.7859e-08
1.02493e-08
1.9311e-08
1.41822e-08
1.96292e-08
1.90294e-08
1.84866e-08
2.49232e-08
1.55046e-08
3.20122e-08
1.02487e-08
4.0462e-08
2.22445e-09
5.04562e-08
-9.12486e-09
6.21963e-08
-2.44195e-08
7.59014e-08
-4.43429e-08
9.1807e-08
-6.96382e-08
1.10161e-07
-1.01099e-07
1.31218e-07
-1.39557e-07
1.55235e-07
-1.8586e-07
1.82454e-07
-2.40839e-07
2.13095e-07
-3.05274e-07
2.47337e-07
-3.79834e-07
2.85282e-07
-4.65e-07
3.26943e-07
-5.6097e-07
3.72227e-07
-6.67626e-07
4.20909e-07
-7.84442e-07
4.72628e-07
-9.10441e-07
5.26869e-07
-1.04423e-06
5.831e-07
-1.18387e-06
-1.32931e-06
6.40396e-07
1.63805e-10
1.81699e-09
6.87831e-10
5.1697e-09
1.63163e-09
8.3446e-09
3.06277e-09
1.11987e-08
5.05782e-09
1.35579e-08
7.70336e-09
1.52135e-08
1.10973e-08
1.59171e-08
1.535e-08
1.53765e-08
2.05855e-08
1.32511e-08
2.69428e-08
9.14738e-09
3.45766e-08
2.61486e-09
4.36585e-08
-6.85743e-09
5.43768e-08
-1.98431e-08
6.69368e-08
-3.69795e-08
8.15599e-08
-5.89661e-08
9.84806e-08
-8.65589e-08
1.17942e-07
-1.20561e-07
1.40192e-07
-1.61807e-07
1.6547e-07
-2.11138e-07
1.94e-07
-2.69369e-07
2.25971e-07
-3.37245e-07
2.6152e-07
-4.15383e-07
3.00696e-07
-5.04176e-07
3.43454e-07
-6.03728e-07
3.8963e-07
-7.13802e-07
4.38921e-07
-8.33733e-07
4.90881e-07
-9.62401e-07
5.44904e-07
-1.09825e-06
6.0046e-07
-1.23942e-06
-1.3852e-06
6.56347e-07
1.75652e-10
1.64134e-09
7.38093e-10
4.60726e-09
1.7516e-09
7.3311e-09
3.28885e-09
9.66142e-09
5.43188e-09
1.14149e-08
8.27309e-09
1.23722e-08
1.19166e-08
1.22735e-08
1.64792e-08
1.08139e-08
2.20913e-08
7.63901e-09
2.88981e-08
2.34052e-09
3.70606e-08
-5.54764e-09
4.67556e-08
-1.65524e-08
5.81761e-08
-3.12636e-08
7.15307e-08
-5.03342e-08
8.70417e-08
-7.4477e-08
1.04942e-07
-1.04459e-07
1.25469e-07
-1.41088e-07
1.48859e-07
-1.85197e-07
1.75336e-07
-2.37615e-07
2.051e-07
-2.99132e-07
2.38308e-07
-3.70453e-07
2.7505e-07
-4.52125e-07
3.15323e-07
-5.44448e-07
3.59021e-07
-6.47426e-07
4.0591e-07
-7.60691e-07
4.55608e-07
-8.8343e-07
5.0758e-07
-1.01437e-06
5.6112e-07
-1.15179e-06
6.15711e-07
-1.29401e-06
-1.43922e-06
6.69729e-07
1.87188e-10
1.45415e-09
7.87034e-10
4.00741e-09
1.86841e-09
6.24973e-09
3.50896e-09
8.02087e-09
5.79607e-09
9.12779e-09
8.8279e-09
9.3404e-09
1.27145e-08
8.38691e-09
1.75788e-08
5.94964e-09
2.35574e-08
1.66037e-09
3.08018e-08
-4.9038e-09
3.94782e-08
-1.42241e-08
4.97688e-08
-2.6843e-08
6.18706e-08
-4.33654e-08
7.59945e-08
-6.4458e-08
9.23626e-08
-9.08451e-08
1.11205e-07
-1.23301e-07
1.32751e-07
-1.62634e-07
1.57225e-07
-2.09672e-07
1.84833e-07
-2.65223e-07
2.15747e-07
-3.30046e-07
2.5009e-07
-4.04795e-07
2.87901e-07
-4.89936e-07
3.29125e-07
-5.85673e-07
3.73599e-07
-6.919e-07
4.21018e-07
-8.08111e-07
4.70925e-07
-9.33337e-07
5.22693e-07
-1.06614e-06
5.75491e-07
-1.20459e-06
6.28743e-07
-1.34726e-06
-1.4908e-06
6.80328e-07
1.98583e-10
1.25557e-09
8.35296e-10
3.3707e-09
1.98346e-09
5.10157e-09
3.72554e-09
6.27879e-09
6.15409e-09
6.69924e-09
9.37288e-09
6.12161e-09
1.34977e-08
4.26212e-09
1.86572e-08
7.90077e-10
2.49941e-08
-4.67653e-09
3.26653e-08
-1.2575e-08
4.18426e-08
-2.34014e-08
5.27126e-08
-3.77129e-08
6.54754e-08
-5.61282e-08
8.03432e-08
-7.93259e-08
9.7537e-08
-1.08039e-07
1.17282e-07
-1.43045e-07
1.39799e-07
-1.85151e-07
1.65297e-07
-2.3517e-07
1.9396e-07
-2.93887e-07
2.25933e-07
-3.62019e-07
2.61297e-07
-4.40159e-07
3.00042e-07
-5.28682e-07
3.42065e-07
-6.27696e-07
3.87142e-07
-7.36976e-07
4.34909e-07
-8.55878e-07
4.8485e-07
-9.83277e-07
5.36263e-07
-1.11756e-06
5.88185e-07
-1.25651e-06
6.3962e-07
-1.3987e-06
-1.53911e-06
6.87927e-07
2.09982e-10
1.04559e-09
8.83437e-10
2.69724e-09
2.09798e-09
3.88702e-09
3.94073e-09
4.43604e-09
6.50929e-09
4.13069e-09
9.91266e-09
2.71824e-09
1.42721e-08
-9.7314e-11
1.97219e-08
-4.65975e-09
2.64102e-08
-1.13648e-08
3.44992e-08
-2.0664e-08
4.41655e-08
-3.30677e-08
5.55993e-08
-4.91467e-08
6.9003e-08
-6.9532e-08
8.45891e-08
-9.4912e-08
1.02576e-07
-1.26026e-07
1.23182e-07
-1.63651e-07
1.46617e-07
-2.08586e-07
1.73073e-07
-2.61626e-07
2.0271e-07
-3.23524e-07
2.35642e-07
-3.9495e-07
2.71903e-07
-4.76421e-07
3.1144e-07
-5.68218e-07
3.54096e-07
-6.70352e-07
3.99593e-07
-7.82474e-07
4.47524e-07
-9.03808e-07
4.97341e-07
-1.03309e-06
5.48349e-07
-1.16856e-06
5.99617e-07
-1.30778e-06
6.49474e-07
-1.44856e-06
-1.58176e-06
6.92126e-07
2.21512e-10
8.24075e-10
9.31948e-10
1.98681e-09
2.21305e-09
2.60592e-09
4.15641e-09
2.49268e-09
6.86443e-09
1.42267e-09
1.04511e-08
-8.68428e-10
1.50428e-08
-4.68905e-09
2.07791e-08
-1.03961e-08
2.78132e-08
-1.83989e-08
3.63121e-08
-2.91628e-08
4.64562e-08
-4.32118e-08
5.84387e-08
-6.11292e-08
7.24632e-08
-8.35566e-08
8.87411e-08
-1.1119e-07
1.07486e-07
-1.44771e-07
1.28909e-07
-1.85073e-07
1.53205e-07
-2.32883e-07
1.80549e-07
-2.88969e-07
2.11072e-07
-3.54048e-07
2.44853e-07
-4.28731e-07
2.81879e-07
-5.13447e-07
3.22052e-07
-6.08391e-07
3.65161e-07
-7.13462e-07
4.10877e-07
-8.2819e-07
4.58751e-07
-9.51682e-07
5.08225e-07
-1.08257e-06
5.58684e-07
-1.21902e-06
6.09588e-07
-1.35868e-06
6.60417e-07
-1.49938e-06
-1.63568e-06
7.14333e-07
2.33279e-10
5.90796e-10
9.81222e-10
1.23887e-09
2.32952e-09
1.25762e-09
4.37406e-09
4.4814e-10
7.22174e-09
-1.42501e-09
1.09912e-08
-4.63793e-09
1.58138e-08
-9.5116e-09
2.18337e-08
-1.6416e-08
2.92088e-08
-2.57739e-08
3.811e-08
-3.80641e-08
4.87212e-08
-5.3823e-08
6.12371e-08
-7.36451e-08
7.58617e-08
-9.81811e-08
9.28034e-08
-1.28132e-07
1.1227e-07
-1.64238e-07
1.34462e-07
-2.07265e-07
1.59559e-07
-2.57981e-07
1.87713e-07
-3.17123e-07
2.19028e-07
-3.85362e-07
2.53538e-07
-4.63241e-07
2.91189e-07
-5.51099e-07
3.31832e-07
-6.49034e-07
3.75203e-07
-7.56832e-07
4.20916e-07
-8.73903e-07
4.6847e-07
-9.99235e-07
5.17266e-07
-1.13136e-06
5.66682e-07
-1.26844e-06
6.162e-07
-1.4082e-06
6.65342e-07
-1.54853e-06
-1.68436e-06
7.1402e-07
2.4535e-10
3.45446e-10
1.03153e-09
4.52685e-10
2.44801e-09
-1.58863e-10
4.59471e-09
-1.69856e-09
7.58274e-09
-4.41304e-09
1.15352e-08
-8.59039e-09
1.65877e-08
-1.45641e-08
2.2889e-08
-2.27172e-08
3.06006e-08
-3.34856e-08
3.9897e-08
-4.73605e-08
5.09641e-08
-6.48901e-08
6.39978e-08
-8.66788e-08
7.92003e-08
-1.13384e-07
9.6776e-08
-1.45707e-07
1.16925e-07
-1.84387e-07
1.39834e-07
-2.30174e-07
1.65667e-07
-2.83813e-07
1.94549e-07
-3.46005e-07
2.26552e-07
-4.17366e-07
2.61667e-07
-4.98356e-07
2.99796e-07
-5.89227e-07
3.40738e-07
-6.89976e-07
3.84173e-07
-8.00267e-07
4.29662e-07
-9.19392e-07
4.76643e-07
-1.04622e-06
5.24478e-07
-1.1792e-06
5.72497e-07
-1.31646e-06
6.20075e-07
-1.45578e-06
6.66536e-07
-1.59499e-06
-1.72919e-06
7.11366e-07
2.57777e-10
8.76689e-11
1.08305e-09
-3.72591e-10
2.56889e-09
-1.6447e-09
4.81897e-09
-3.94864e-09
7.94838e-09
-7.54245e-09
1.20842e-08
-1.27262e-08
1.73661e-08
-1.9846e-08
2.39464e-08
-2.92976e-08
3.19902e-08
-4.15293e-08
4.16741e-08
-5.70444e-08
5.31857e-08
-7.64016e-08
6.672e-08
-1.00213e-07
8.24767e-08
-1.2914e-07
1.00654e-07
-1.63885e-07
1.21443e-07
-2.05175e-07
1.45015e-07
-2.53746e-07
1.71513e-07
-3.10311e-07
2.01035e-07
-3.75528e-07
2.33618e-07
-4.49948e-07
2.69207e-07
-5.33945e-07
3.07662e-07
-6.27683e-07
3.4873e-07
-7.31043e-07
3.92036e-07
-8.43574e-07
4.37087e-07
-9.64442e-07
4.83274e-07
-1.0924e-06
5.29922e-07
-1.22585e-06
5.76325e-07
-1.36286e-06
6.21798e-07
-1.50125e-06
6.65631e-07
-1.63882e-06
-1.77093e-06
7.07368e-07
2.70578e-10
-1.82909e-10
1.13587e-09
-1.23788e-09
2.6923e-09
-3.20113e-09
5.0471e-09
-6.30343e-09
8.31895e-09
-1.08143e-08
1.26386e-08
-1.70459e-08
1.81491e-08
-2.53566e-08
2.50061e-08
-3.61545e-08
3.3377e-08
-4.99002e-08
4.34402e-08
-6.71077e-08
5.53833e-08
-8.83447e-08
6.93997e-08
-1.1423e-07
8.56847e-08
-1.45425e-07
1.04429e-07
-1.82629e-07
1.25811e-07
-2.26557e-07
1.49986e-07
-2.77921e-07
1.77074e-07
-3.37399e-07
2.07145e-07
-4.05599e-07
2.40191e-07
-4.82994e-07
2.76122e-07
-5.69877e-07
3.14749e-07
-6.6631e-07
3.55768e-07
-7.72062e-07
3.98756e-07
-8.86562e-07
4.43169e-07
-1.00886e-06
4.88365e-07
-1.1376e-06
5.33646e-07
-1.27113e-06
5.78293e-07
-1.40751e-06
6.21623e-07
-1.54458e-06
6.62984e-07
-1.68018e-06
-1.81e-06
7.0206e-07
2.83748e-10
-4.66656e-10
1.18995e-09
-2.14409e-09
2.81818e-09
-4.82937e-09
5.27891e-09
-8.76416e-09
8.69412e-09
-1.42295e-08
1.31977e-08
-2.15495e-08
1.89358e-08
-3.10946e-08
2.60663e-08
-4.32851e-08
3.47585e-08
-5.85924e-08
4.51915e-08
-7.75406e-08
5.75517e-08
-1.00705e-07
7.20296e-08
-1.28707e-07
8.88143e-08
-1.6221e-07
1.08087e-07
-2.01902e-07
1.30013e-07
-2.48483e-07
1.54727e-07
-3.02636e-07
1.82326e-07
-3.64998e-07
2.12845e-07
-4.36117e-07
2.46238e-07
-5.16387e-07
2.82374e-07
-6.06013e-07
3.21018e-07
-7.04953e-07
3.61818e-07
-8.12862e-07
4.04304e-07
-9.29049e-07
4.47894e-07
-1.05244e-06
4.91924e-07
-1.18163e-06
5.35687e-07
-1.31489e-06
5.78477e-07
-1.4503e-06
6.19648e-07
-1.58575e-06
6.58645e-07
-1.71918e-06
-1.84666e-06
6.95303e-07
2.97262e-10
-7.63918e-10
1.24519e-09
-3.09201e-09
2.94626e-09
-6.53043e-09
5.5139e-09
-1.13318e-08
9.07299e-09
-1.77886e-08
1.37602e-08
-2.62367e-08
1.9724e-08
-3.70584e-08
2.7124e-08
-5.06851e-08
3.61306e-08
-6.75989e-08
4.69221e-08
-8.83322e-08
5.96831e-08
-1.13466e-07
7.45993e-08
-1.43624e-07
9.18523e-08
-1.79463e-07
1.11612e-07
-2.21662e-07
1.34027e-07
-2.70898e-07
1.59214e-07
-3.27822e-07
1.87239e-07
-3.93023e-07
2.18101e-07
-4.6698e-07
2.51721e-07
-5.50007e-07
2.87924e-07
-6.42216e-07
3.2643e-07
-7.43459e-07
3.66843e-07
-8.53276e-07
4.08652e-07
-9.70858e-07
4.51247e-07
-1.09504e-06
4.93953e-07
-1.22434e-06
5.36072e-07
-1.35701e-06
5.76925e-07
-1.49115e-06
6.15925e-07
-1.62475e-06
6.5262e-07
-1.75587e-06
-1.88103e-06
6.86991e-07
3.11072e-10
-1.07499e-09
1.30138e-09
-4.08232e-09
3.07606e-09
-8.30512e-09
5.75119e-09
-1.40069e-08
9.45417e-09
-2.14916e-08
1.43239e-08
-3.11064e-08
2.05105e-08
-4.3245e-08
2.81749e-08
-5.83495e-08
3.74871e-08
-7.69111e-08
4.86243e-08
-9.94694e-08
6.17673e-08
-1.26609e-07
7.70959e-08
-1.58952e-07
9.47826e-08
-1.9715e-07
1.14984e-07
-2.41864e-07
1.37831e-07
-2.93745e-07
1.63417e-07
-3.53407e-07
1.91778e-07
-4.21385e-07
2.22879e-07
-4.98081e-07
2.56603e-07
-5.8373e-07
2.92733e-07
-6.78347e-07
3.30948e-07
-7.81674e-07
3.70812e-07
-8.93139e-07
4.11777e-07
-1.01182e-06
4.53219e-07
-1.13648e-06
4.94463e-07
-1.26558e-06
5.34826e-07
-1.39737e-06
5.73676e-07
-1.53e-06
6.10493e-07
-1.66157e-06
6.44927e-07
-1.79031e-06
-1.91319e-06
6.77084e-07
3.25113e-10
-1.4001e-09
1.35826e-09
-5.11546e-09
3.20699e-09
-1.01539e-08
5.98968e-09
-1.67896e-08
9.83582e-09
-2.53377e-08
1.4886e-08
-3.61566e-08
2.12915e-08
-4.96506e-08
2.92135e-08
-6.62715e-08
3.8821e-08
-8.65186e-08
5.02886e-08
-1.10937e-07
6.37923e-08
-1.40113e-07
7.95045e-08
-1.74664e-07
9.75867e-08
-2.15232e-07
1.18181e-07
-2.62458e-07
1.41398e-07
-3.16963e-07
1.67307e-07
-3.79316e-07
1.95912e-07
-4.49989e-07
2.27143e-07
-5.29312e-07
2.60846e-07
-6.17433e-07
2.96765e-07
-7.14267e-07
3.3454e-07
-8.19448e-07
3.73695e-07
-9.32294e-07
4.13662e-07
-1.05179e-06
4.53807e-07
-1.17663e-06
4.93464e-07
-1.30524e-06
5.31979e-07
-1.43589e-06
5.68772e-07
-1.56679e-06
6.03396e-07