/*--------------------------------*- C++ -*----------------------------------*\
| =========                 |                                                 |
| \\      /  F ield         | foam-extend: Open Source CFD                    |
|  \\    /   O peration     | Version:     4.0                                |
|   \\  /    A nd           | Web:         http://www.foam-extend.org         |
|    \\/     M anipulation  |                                                 |
\*---------------------------------------------------------------------------*/
FoamFile
{
    version     2.0;
    format      ascii;
    class       volVectorField;
    location    "25";
    object      U;
}
// * * * * * * * * * * * * * * * * * * * * * * * * * * * * * * * * * * * * * //

dimensions      [0 1 -1 0 0 0 0];

internalField   nonuniform List<vector> 
36000
(
(-4.77391e-07 2.17377e-06 -2.08083e-25)
(-4.65655e-06 6.08097e-06 2.14841e-25)
(-1.32134e-05 9.66128e-06 0)
(-2.60887e-05 1.2891e-05 0)
(-4.30984e-05 1.5748e-05 -1.89026e-25)
(-6.40471e-05 1.82101e-05 -1.79635e-25)
(-8.86969e-05 2.02562e-05 0)
(-0.000116731 2.18666e-05 0)
(-0.000147744 2.30233e-05 0)
(-0.00018124 2.37097e-05 0)
(-0.000216628 2.3911e-05 0)
(-0.000253217 2.36142e-05 -2.49126e-25)
(-0.000290217 2.28082e-05 -1.29396e-28)
(-0.000326735 2.14837e-05 -2.1628e-25)
(-0.00036177 1.96333e-05 1.9918e-25)
(-0.000394219 1.72516e-05 -1.85289e-25)
(-0.000422873 1.43356e-05 3.3975e-25)
(-0.000446423 1.0885e-05 -1.53833e-25)
(-0.000463465 6.90138e-06 1.42603e-25)
(-0.000472474 2.38836e-06 3.8249e-25)
(-0.000471967 -2.58004e-06 -3.57685e-27)
(-0.000460304 -8.0659e-06 4.07756e-25)
(-0.000435807 -1.40115e-05 -9.28825e-26)
(-0.000396833 -2.03639e-05 -1.54549e-25)
(-0.000341781 -2.706e-05 -1.34089e-25)
(-0.000269164 -3.40178e-05 0)
(-0.000177682 -4.1133e-05 0)
(-6.63002e-05 -4.8278e-05 0)
(6.55484e-05 -5.52792e-05 6.05758e-26)
(0.000218826 -6.20072e-05 -1.01917e-25)
(-7.00374e-07 6.53324e-06 0)
(-5.2421e-06 1.82773e-05 0)
(-1.40772e-05 2.90398e-05 0)
(-2.71447e-05 3.87492e-05 7.976e-25)
(-4.42599e-05 4.73379e-05 -1.85503e-25)
(-6.52266e-05 5.4739e-05 1.79615e-25)
(-8.98061e-05 6.08885e-05 0)
(-0.000117681 6.57263e-05 0)
(-0.000148446 6.91974e-05 -6.08099e-25)
(-0.000181605 7.12515e-05 5.70344e-25)
(-0.000216567 7.18433e-05 -5.35073e-25)
(-0.000252644 7.09333e-05 5.00378e-25)
(-0.000289045 6.84875e-05 2.32747e-25)
(-0.000324878 6.44773e-05 2.18837e-25)
(-0.000359145 5.88802e-05 4.02379e-25)
(-0.000390743 5.16801e-05 0)
(-0.000418466 4.28681e-05 -1.01576e-24)
(-0.000441007 3.24438e-05 9.84941e-27)
(-0.000456967 2.04174e-05 1.13365e-24)
(-0.000464846 6.81681e-06 -7.75935e-25)
(-0.000463106 -8.25892e-06 -4.6406e-25)
(-0.000450145 -2.48088e-05 4.07302e-25)
(-0.000424308 -4.27419e-05 -3.73314e-25)
(-0.000383957 -6.19042e-05 6.43753e-25)
(-0.000327509 -8.20996e-05 8.76519e-27)
(-0.000253492 -0.000103077 4.73379e-25)
(-0.000160633 -0.000124519 -6.10008e-25)
(-4.79096e-05 -0.000146037 0)
(8.51474e-05 -0.00016712 0)
(0.000239744 -0.000187348 0)
(-1.14112e-06 1.07994e-05 8.42474e-25)
(-6.39948e-06 3.02167e-05 8.00185e-27)
(-1.57843e-05 4.80166e-05 -1.25504e-24)
(-2.92309e-05 6.40793e-05 1.60665e-24)
(-4.65535e-05 7.82917e-05 -1.89993e-24)
(-6.75542e-05 9.0542e-05 -1.45291e-24)
(-9.19922e-05 0.000100722 2.74534e-24)
(-0.000119549 0.000108732 -1.29462e-24)
(-0.00014982 0.000114479 0)
(-0.000182307 0.000117878 0)
(-0.000216421 0.000118853 0)
(-0.000251476 0.000117336 0)
(-0.000286683 0.000113271 9.36601e-25)
(-0.000321152 0.000106609 -2.17752e-24)
(-0.000353887 9.73105e-05 1.62125e-24)
(-0.000383789 8.53491e-05 0)
(-0.000409656 7.07096e-05 6.80726e-25)
(-0.000430187 5.33912e-05 -6.31775e-25)
(-0.000443986 3.3411e-05 0)
(-0.000449573 1.08257e-05 0)
(-0.000445407 -1.42533e-05 2.31918e-24)
(-0.000429884 -4.17618e-05 -1.26202e-24)
(-0.000401381 -7.15492e-05 0)
(-0.00035829 -0.000103373 -1.48367e-26)
(-0.000299059 -0.000136908 -5.79296e-25)
(-0.000222257 -0.000171735 -5.09238e-25)
(-0.000126657 -0.000207321 3.62339e-25)
(-1.12783e-05 -0.000243016 3.23231e-25)
(0.000124176 -0.000277993 0)
(0.000281404 -0.000311495 6.21873e-25)
(-1.78824e-06 1.49126e-05 0)
(-8.09882e-06 4.17348e-05 0)
(-1.82904e-05 6.63336e-05 4.21218e-25)
(-3.22926e-05 8.85413e-05 -1.62372e-24)
(-4.99177e-05 0.000108199 3.08178e-24)
(-7.09645e-05 0.00012515 -2.19635e-24)
(-9.51894e-05 0.000139241 0)
(-0.000122272 0.000150332 0)
(-0.000151806 0.00015829 -1.85633e-24)
(-0.000183294 0.000162995 2.31891e-24)
(-0.000216149 0.000164339 -1.08658e-24)
(-0.000249685 0.000162226 -1.02215e-24)
(-0.000283116 0.000156574 1.89059e-24)
(-0.000315555 0.000147313 -1.76325e-24)
(-0.000346011 0.000134388 -8.1132e-25)
(-0.000373389 0.000117759 0)
(-0.000396494 9.7404e-05 -2.76879e-24)
(-0.000414029 7.33214e-05 1.23338e-28)
(-0.000424613 4.55348e-05 2.30761e-24)
(-0.000426779 1.41315e-05 -3.71883e-27)
(-0.000418996 -2.07752e-05 -8.82385e-27)
(-0.000399671 -5.90518e-05 -3.03739e-26)
(-0.000367215 -0.000100479 -7.64312e-25)
(-0.000320057 -0.000144725 1.3287e-24)
(-0.000256697 -0.000191339 0)
(-0.000175759 -0.000239734 2.92308e-26)
(-7.60919e-05 -0.000289165 1.65225e-24)
(4.32158e-05 -0.00033872 -7.53271e-25)
(0.000182216 -0.000387263 -1.72425e-24)
(0.000343355 -0.000433671 -1.31939e-24)
(-2.62513e-06 1.88168e-05 1.29614e-24)
(-1.02965e-05 5.26768e-05 -2.68387e-24)
(-2.15307e-05 8.37479e-05 1.7117e-24)
(-3.62495e-05 0.000111815 1.64619e-24)
(-5.42616e-05 0.000136672 -1.55728e-24)
(-7.53616e-05 0.000158118 7.3676e-25)
(-9.9301e-05 0.000175954 -2.10629e-24)
(-0.000125756 0.000189997 5.30419e-24)
(-0.000154319 0.000200075 -6.15579e-25)
(-0.000184493 0.000206031 1.18269e-24)
(-0.00021569 0.000207723 -1.10825e-24)
(-0.000247226 0.000205026 1.02206e-24)
(-0.000278319 0.00019783 0)
(-0.000308085 0.000186043 0)
(-0.000335538 0.000169591 3.30766e-24)
(-0.000359589 0.000148422 -1.53007e-24)
(-0.000379051 0.000122503 1.39334e-24)
(-0.000392638 9.18329e-05 1.27643e-24)
(-0.000398981 5.64522e-05 -2.34603e-24)
(-0.000396632 1.64492e-05 -3.17913e-24)
(-0.000384071 -2.80356e-05 9.71797e-25)
(-0.000359739 -7.68092e-05 3.42144e-24)
(-0.000322081 -0.000129578 -1.55621e-24)
(-0.000269578 -0.000185918 2.99892e-26)
(-0.000200789 -0.000245253 1.18409e-24)
(-0.00011442 -0.000306831 -1.01919e-24)
(-9.41396e-06 -0.000369698 -8.1151e-25)
(0.000115037 -0.000432668 7.62686e-26)
(0.000258675 -0.000494334 5.66742e-25)
(0.000424962 -0.00055314 8.90443e-25)
(-3.63054e-06 2.24613e-05 3.94995e-24)
(-1.29364e-05 6.29016e-05 -9.05644e-25)
(-2.54217e-05 0.000100037 0)
(-4.09977e-05 0.000133604 -8.42765e-25)
(-5.94683e-05 0.000163353 -3.98555e-24)
(-8.06212e-05 0.000189033 4.5273e-24)
(-0.000104202 0.000210403 2.14985e-24)
(-0.000129881 0.000227235 -1.33003e-24)
(-0.000157248 0.000239316 1.27956e-24)
(-0.000185805 0.000246451 -5.9466e-24)
(-0.000214963 0.000248462 3.34011e-24)
(-0.00024404 0.000245191 -1.03246e-24)
(-0.000272257 0.000236501 3.88841e-24)
(-0.000298734 0.000222276 -1.81091e-24)
(-0.00032249 0.00020242 -5.02242e-24)
(-0.000342446 0.000176866 3.09394e-24)
(-0.00035742 0.000145576 -2.84785e-24)
(-0.000366144 0.000108546 -4.02978e-27)
(-0.00036726 6.58194e-05 -1.22587e-24)
(-0.000359339 1.74993e-05 -1.06728e-24)
(-0.000340889 -3.6247e-05 3.9075e-24)
(-0.000310388 -9.51704e-05 -3.51609e-24)
(-0.00026633 -0.000158902 0)
(-0.000207255 -0.000226921 -1.41286e-24)
(-0.000131802 -0.000298524 -1.25521e-24)
(-3.87718e-05 -0.000372798 -2.15468e-24)
(7.27771e-05 -0.000448578 1.79094e-24)
(0.000203507 -0.000524411 0)
(0.000352791 -0.000598651 2.97277e-24)
(0.000525358 -0.000669201 -5.15605e-25)
(-4.77928e-06 2.58011e-05 0)
(-1.59521e-05 7.22842e-05 0)
(-2.98643e-05 0.000115002 0)
(-4.64138e-05 0.000153646 -1.75492e-26)
(-6.53975e-05 0.000187919 5.68091e-24)
(-8.65942e-05 0.000217525 -4.58367e-24)
(-0.00010974 0.000242176 2.90864e-24)
(-0.000134499 0.000261598 -5.47938e-24)
(-0.000160456 0.000275539 -1.30281e-24)
(-0.000187109 0.00028376 -2.42388e-24)
(-0.000213869 0.000286049 2.27003e-24)
(-0.000240054 0.000282213 1.06777e-24)
(-0.000264886 0.000272083 1.67676e-26)
(-0.00028749 0.000255517 0)
(-0.000306893 0.000232401 -3.09508e-26)
(-0.000322021 0.000202648 1.54602e-24)
(-0.000331707 0.000166211 -1.44938e-24)
(-0.000334694 0.000123081 1.31861e-24)
(-0.000329643 7.33076e-05 4.86658e-24)
(-0.000315146 1.70072e-05 -4.96886e-26)
(-0.000289748 -4.56221e-05 -2.07409e-24)
(-0.000251975 -0.000114277 -1.76841e-24)
(-0.000200378 -0.000188514 6.90537e-27)
(-0.00013357 -0.000267712 -1.47551e-24)
(-5.02866e-05 -0.000351043 -2.5142e-24)
(5.05589e-05 -0.000437427 3.24903e-24)
(0.000169756 -0.000525489 -8.42074e-25)
(0.000307821 -0.00061354 -1.4561e-24)
(0.000463669 -0.000699692 -2.37558e-24)
(0.00064353 -0.00078121 1.08455e-24)
(-6.04301e-06 2.87986e-05 -3.67855e-24)
(-1.92686e-05 8.07184e-05 0)
(-3.47462e-05 0.000128475 -3.65969e-24)
(-5.23576e-05 0.000171714 4.329e-24)
(-7.18899e-05 0.000210093 -4.94728e-24)
(-9.31103e-05 0.000243268 6.26535e-24)
(-0.000115743 0.000270906 -5.92469e-24)
(-0.000139442 0.000292689 1.37774e-24)
(-0.000163785 0.000308318 2.6016e-24)
(-0.000188265 0.000317515 -2.55848e-26)
(-0.000212289 0.000320028 -4.65071e-24)
(-0.000235175 0.000315627 4.31971e-24)
(-0.000256147 0.000304112 -4.04242e-24)
(-0.000274332 0.000285315 -7.49221e-24)
(-0.000288765 0.000259095 5.20364e-24)
(-0.000298382 0.000225349 1.59059e-24)
(-0.000302024 0.000184015 -4.45752e-24)
(-0.00029845 0.000135081 -2.74825e-24)
(-0.000286343 7.86009e-05 -2.45854e-24)
(-0.000264325 1.47065e-05 6.76424e-24)
(-0.000230983 -5.63717e-05 -2.12152e-24)
(-0.000184899 -0.000134276 -5.52025e-27)
(-0.000124692 -0.000218488 -3.38859e-24)
(-4.90653e-05 -0.000308289 5.82973e-24)
(4.31332e-05 -0.00040272 2.51415e-24)
(0.000152856 -0.000500535 -2.17726e-24)
(0.000280714 -0.000600159 1.15185e-25)
(0.000427073 -0.000699672 1.67409e-24)
(0.000590293 -0.000796974 2.54336e-24)
(0.000778329 -0.000888573 -3.34048e-24)
(-7.39116e-06 3.14238e-05 3.78435e-24)
(-2.28047e-05 8.81189e-05 -4.89902e-24)
(-3.99456e-05 0.000140318 -3.74806e-24)
(-5.86762e-05 0.000187622 3.5525e-24)
(-7.8771e-05 0.000229642 3.38728e-24)
(-9.9982e-05 0.00026599 -1.57713e-24)
(-0.000122018 0.000296286 0)
(-0.000144521 0.000320166 0)
(-0.000167057 0.000337287 1.32917e-24)
(-0.000189111 0.000347328 2.49557e-24)
(-0.000210086 0.000349995 7.05777e-24)
(-0.000229298 0.000345022 -4.4146e-24)
(-0.000245967 0.000332176 -4.31654e-26)
(-0.000259229 0.000311258 3.8166e-24)
(-0.000268122 0.000282102 -1.81155e-24)
(-0.000271587 0.000244584 -3.29079e-24)
(-0.000268479 0.000198624 9.06189e-24)
(-0.000257575 0.000144211 2.71657e-24)
(-0.000237583 8.14005e-05 1.42783e-26)
(-0.000207163 1.03424e-05 5.27087e-27)
(-0.000164948 -6.86996e-05 -4.88762e-26)
(-0.000109587 -0.000155314 1.86482e-24)
(-3.97795e-05 -0.000248907 5.05668e-24)
(4.56672e-05 -0.00034866 9.74001e-26)
(0.000147777 -0.000453485 2.57598e-24)
(0.000267335 -0.000561965 -6.94697e-24)
(0.00040477 -0.000672345 -3.81688e-24)
(0.00056027 -0.00078247 1.44744e-25)
(0.000731546 -0.000890063 1.47172e-24)
(0.000928489 -0.000990759 2.19535e-24)
(-8.79186e-06 3.36546e-05 -2.90386e-24)
(-2.64752e-05 9.44218e-05 5.00569e-24)
(-4.53342e-05 0.000150425 -1.94458e-24)
(-6.5208e-05 0.000201224 5.50601e-24)
(-8.58552e-05 0.000246385 -3.45893e-24)
(-0.000107009 0.000285474 -1.62104e-24)
(-0.000128359 0.000318066 -6.20287e-24)
(-0.000149532 0.000343751 5.83635e-24)
(-0.000170077 0.000362142 -2.77914e-24)
(-0.000189471 0.000372873 0)
(-0.000207109 0.000375609 -4.82396e-24)
(-0.000222298 0.000370044 4.5115e-24)
(-0.000234262 0.000355915 -2.118e-24)
(-0.000242138 0.000332986 3.91476e-24)
(-0.000244962 0.000301064 1.79338e-24)
(-0.000241684 0.000260001 0)
(-0.000231174 0.000209707 7.18925e-26)
(-0.00021223 0.000150162 0)
(-0.000183589 8.14289e-05 6.46668e-26)
(-0.000143953 3.6746e-06 4.76631e-24)
(-9.20108e-05 -8.2802e-05 4.33183e-24)
(-2.64856e-05 -0.000177536 1.87019e-24)
(5.38297e-05 -0.000279858 -1.04183e-23)
(0.000150007 -0.000388848 1.08038e-25)
(0.000262916 -0.000503282 0)
(0.000393175 -0.000621595 4.78768e-24)
(0.000540991 -0.000741842 2.84653e-26)
(0.000706357 -0.000861638 5.43403e-24)
(0.000886229 -0.000978568 0)
(0.00109266 -0.0010873 -2.46655e-24)
(-1.02128e-05 3.54774e-05 1.04137e-24)
(-3.01936e-05 9.95854e-05 2.09716e-24)
(-5.07808e-05 0.000158727 3.94264e-24)
(-7.17869e-05 0.000212421 -1.12519e-23)
(-9.29507e-05 0.000260191 5.29754e-24)
(-0.000113983 0.00030156 -5.02788e-24)
(-0.00013455 0.000336058 1.26974e-23)
(-0.000154257 0.00036323 -5.97801e-24)
(-0.000172638 0.000382643 5.62497e-24)
(-0.000189153 0.000393889 0)
(-0.000203186 0.000396589 0)
(-0.000214037 0.000390403 6.94137e-24)
(-0.00022093 0.000375027 -1.0432e-26)
(-0.000222993 0.000350191 -4.00453e-24)
(-0.000219264 0.00031567 5.35167e-26)
(-0.000208702 0.000271297 -3.18828e-26)
(-0.000190194 0.000216969 -6.28805e-24)
(-0.00016256 0.000152659 2.92945e-24)
(-0.000124574 7.84351e-05 -2.6406e-24)
(-7.49798e-05 -5.51623e-06 2.43259e-24)
(-1.25331e-05 -9.88623e-05 -8.85645e-24)
(6.39598e-05 -0.000201083 -8.03098e-24)
(0.000155596 -0.00031143 3.76728e-24)
(0.000263312 -0.00042888 6.53504e-24)
(0.000387815 -0.000552087 -2.89318e-24)
(0.000529526 -0.000679325 -2.43998e-24)
(0.000688403 -0.000808472 0)
(0.000864223 -0.000936919 -3.60278e-24)
(0.00105309 -0.00106215 0)
(0.00126942 -0.00117777 3.6788e-24)
(-1.16222e-05 3.68862e-05 -2.02525e-24)
(-3.38739e-05 0.00010359 6.42173e-24)
(-5.61544e-05 0.000165186 -8.03465e-24)
(-7.8246e-05 0.000221155 -5.20949e-26)
(-9.98635e-05 0.000270982 3.64896e-24)
(-0.000120691 0.000314147 -8.60637e-24)
(-0.000140367 0.000350136 6.50646e-24)
(-0.000158473 0.000378453 0)
(-0.00017452 0.000398621 2.91383e-24)
(-0.00018795 0.000410186 -8.13642e-24)
(-0.000198134 0.000412729 0)
(-0.000204361 0.000405874 -9.43955e-24)
(-0.000205846 0.000389272 4.40546e-24)
(-0.000201707 0.00036262 -4.14227e-24)
(-0.000190983 0.000325665 -3.69962e-24)
(-0.000172649 0.000278218 7.00149e-24)
(-0.000145604 0.000220162 0)
(-0.000108694 0.000151465 3.02812e-24)
(-6.07302e-05 7.22002e-05 5.45391e-24)
(-5.10293e-07 -1.74279e-05 -1.01365e-23)
(7.31352e-05 -0.000117048 4.51979e-24)
(0.000161308 -0.000226081 -4.18507e-24)
(0.000264984 -0.000343705 -3.66933e-24)
(0.000384952 -0.000468796 -3.38181e-24)
(0.000521734 -0.000599879 -1.1081e-25)
(0.000675528 -0.000735077 0)
(0.000846016 -0.000872091 -4.59515e-24)
(0.00103273 -0.00100809 0)
(0.00123086 -0.00114052 0)
(0.0014573 -0.00126184 2.57875e-24)
(-1.29894e-05 3.78829e-05 2.14816e-24)
(-3.74328e-05 0.000106435 -2.2211e-24)
(-6.13272e-05 0.000169796 -1.03934e-23)
(-8.44208e-05 0.000227413 9.85487e-24)
(-0.000106401 0.00027873 -9.34485e-24)
(-0.00012692 0.00032319 1.0666e-23)
(-0.000145586 0.00036024 -6.67947e-24)
(-0.000161949 0.000389341 1.25702e-23)
(-0.000175496 0.000409973 -5.90451e-24)
(-0.000185647 0.000421642 2.73414e-24)
(-0.000191755 0.000423888 2.55345e-24)
(-0.000193096 0.000416296 -4.89732e-24)
(-0.000188861 0.000398474 0)
(-0.000178163 0.000370086 4.20092e-24)
(-0.000160053 0.000330853 5.32487e-26)
(-0.000133505 0.000280565 7.24011e-24)
(-9.74398e-05 0.000219089 -6.7092e-24)
(-5.07296e-05 0.000146388 3.07646e-24)
(7.77293e-06 6.25414e-05 -5.55431e-24)
(7.92089e-05 -3.22215e-05 1.02691e-23)
(0.000164666 -0.000137492 0)
(0.000265145 -0.000252638 0)
(0.000381488 -0.000376759 7.55512e-24)
(0.000514318 -0.00050863 3.2672e-24)
(0.000663947 -0.000646649 -6.096e-24)
(0.000830331 -0.000788787 -2.72998e-24)
(0.00101284 -0.000932576 4.5931e-24)
(0.00121072 -0.00107495 4.13573e-24)
(0.00141823 -0.00121343 3.53516e-24)
(0.00165483 -0.00133919 -2.90442e-24)
(-1.42857e-05 3.84759e-05 -1.08681e-23)
(-4.0791e-05 0.000108141 2.22108e-24)
(-6.6176e-05 0.000172583 0)
(-9.01519e-05 0.000231218 0)
(-0.000112374 0.000283456 -7.69857e-24)
(-0.000132459 0.000328702 3.681e-24)
(-0.000149981 0.000366368 0)
(-0.000164453 0.000395876 0)
(-0.000175334 0.000416666 -2.98549e-24)
(-0.000182022 0.000428205 8.5468e-24)
(-0.000183842 0.000429998 -6.44755e-26)
(-0.000180041 0.00042158 2.51333e-24)
(-0.000169798 0.000402525 -5.04963e-26)
(-0.000152228 0.000372467 -8.52936e-24)
(-0.000126375 0.000331102 8.02731e-24)
(-9.12219e-05 0.000278196 8.92332e-26)
(-4.57062e-05 0.000213605 3.37022e-24)
(1.12675e-05 0.000137287 1.26304e-23)
(8.08016e-05 4.93294e-05 -1.73659e-23)
(0.000163971 -5.00167e-05 0)
(0.000261775 -0.000160303 0)
(0.000375099 -0.000280841 8.77377e-24)
(0.00050464 -0.000410651 -3.9966e-24)
(0.00065083 -0.000548407 3.60295e-24)
(0.000813757 -0.000692383 -3.09774e-24)
(0.000993106 -0.000840397 1.67326e-23)
(0.0011879 -0.000989817 -1.30595e-25)
(0.00139708 -0.00113736 -6.31236e-24)
(0.00161392 -0.00128068 1.70721e-25)
(0.00186053 -0.00140958 5.79101e-24)
(-1.54841e-05 3.86792e-05 -6.70533e-24)
(-4.38739e-05 0.000108743 9.27378e-24)
(-7.05842e-05 0.000173598 0)
(-9.52858e-05 0.000232631 -8.35875e-24)
(-0.000117598 0.000285223 3.89961e-24)
(-0.000137101 0.000330744 0)
(-0.000153325 0.000368573 3.56262e-24)
(-0.000165752 0.000398096 -3.34915e-24)
(-0.000173804 0.000418726 -3.06505e-24)
(-0.00017684 0.000429895 -2.87182e-24)
(-0.000174152 0.000431053 2.68584e-24)
(-0.000164975 0.000421701 -1.01512e-23)
(-0.000148471 0.000401386 9.45805e-24)
(-0.000123741 0.000369713 4.45049e-24)
(-8.98268e-05 0.000326349 -8.16518e-24)
(-4.57196e-05 0.000271041 9.08407e-26)
(9.62557e-06 0.000203632 -6.96941e-24)
(7.7271e-05 0.000124078 -6.3204e-24)
(0.00015827 3.24774e-05 5.90761e-24)
(0.000253618 -7.08937e-05 5.45923e-24)
(0.000364225 -0.000185548 9.94056e-24)
(0.000490846 -0.00031074 -8.98076e-24)
(0.000634012 -0.000445411 0)
(0.000793954 -0.000588132 -7.20629e-24)
(0.000970506 -0.000737054 -3.32068e-24)
(0.00116306 -0.000889851 -2.62326e-24)
(0.00137024 -0.00104371 7.5386e-24)
(0.00159069 -0.00119518 -4.31248e-24)
(0.00181666 -0.00134208 -3.38935e-24)
(0.00207292 -0.0014728 3.30298e-24)
(-1.6561e-05 3.85116e-05 -2.27855e-24)
(-4.66156e-05 0.00010829 2.42063e-24)
(-7.44481e-05 0.000172912 -2.29817e-24)
(-9.96859e-05 0.000231742 -2.17709e-24)
(-0.00012191 0.000284133 4.00756e-24)
(-0.000140656 0.000329428 1.15437e-23)
(-0.000155413 0.000366976 -1.44389e-23)
(-0.000165619 0.000396133 3.34919e-24)
(-0.000170656 0.000416271 -3.13675e-24)
(-0.000169844 0.000426788 1.19174e-23)
(-0.000162452 0.000427113 -1.11401e-23)
(-0.00014768 0.000416711 5.14892e-24)
(-0.000124674 0.000395096 -1.4507e-23)
(-9.25202e-05 0.000361843 -8.97745e-24)
(-5.02569e-05 0.000316597 1.67365e-23)
(3.11759e-06 0.000259088 3.8999e-24)
(6.86287e-05 0.000189149 -1.44294e-23)
(0.000147303 0.000106736 1.32707e-23)
(0.000240137 1.19596e-05 -6.10079e-24)
(0.000348046 -9.48773e-05 -5.64164e-24)
(0.000471833 -0.000213248 1.34199e-25)
(0.000612112 -0.000342346 0)
(0.000769234 -0.000481033 4.24987e-24)
(0.000943205 -0.00062778 0)
(0.00113359 -0.000780618 6.63611e-24)
(0.00133944 -0.00093707 2.02238e-25)
(0.00155895 -0.00109416 0)
(0.00179048 -0.00124827 1.76993e-25)
(0.00202521 -0.0013975 -3.76587e-24)
(0.00229058 -0.00152869 3.45074e-24)
(-1.74966e-05 3.79981e-05 0)
(-4.89597e-05 0.000106846 -2.42063e-24)
(-7.76777e-05 0.000170621 -7.01779e-24)
(-0.000103232 0.000228668 1.54796e-23)
(-0.000125159 0.000280316 -1.25623e-23)
(-0.00014295 0.000324889 -3.87267e-24)
(-0.000156046 0.000361707 1.10649e-23)
(-0.000163837 0.000390101 -3.52174e-24)
(-0.000165663 0.000409416 3.29481e-24)
(-0.000160809 0.000419019 -6.11221e-24)
(-0.000148503 0.000418312 5.69883e-24)
(-0.000127921 0.000406727 -5.32994e-24)
(-9.81808e-05 0.000383754 -1.16401e-25)
(-5.83561e-05 0.000348943 1.63509e-26)
(-7.47909e-06 0.00030192 4.34479e-24)
(5.54452e-05 0.000242399 0)
(0.000131421 0.000170206 7.24824e-24)
(0.000221436 8.53011e-05 -6.6869e-24)
(0.000326418 -1.21879e-05 0)
(0.000447202 -0.000121933 5.6396e-24)
(0.000584471 -0.000243365 3.17523e-26)
(0.000738683 -0.000375616 -4.78802e-24)
(0.000909992 -0.000517467 -1.29816e-23)
(0.00109815 -0.000667291 -7.87642e-24)
(0.00130244 -0.000822999 0)
(0.00152153 -0.000981958 -6.08083e-24)
(0.00175318 -0.00114106 0)
(0.00199542 -0.00129654 -4.66619e-24)
(0.00223838 -0.00144681 0)
(0.00251209 -0.00157712 -6.94951e-24)
(-1.82735e-05 3.71672e-05 0)
(-5.08541e-05 0.000104487 0)
(-8.01863e-05 0.000166839 0)
(-0.000105802 0.000223555 -9.06527e-24)
(-0.000127195 0.000273945 1.27816e-23)
(-0.000143804 0.000317316 -8.07833e-24)
(-0.00015502 0.000352969 3.84481e-24)
(-0.000160185 0.000380213 7.13143e-24)
(-0.000158593 0.000398371 0)
(-0.000149488 0.000406787 -6.33004e-24)
(-0.000132059 0.000404836 1.16705e-23)
(-0.000105447 0.000391927 -3.14321e-26)
(-6.87466e-05 0.000367528 -1.52431e-26)
(-2.10142e-05 0.000331169 -4.66405e-24)
(3.87238e-05 0.000282459 4.42983e-24)
(0.000111455 0.000221102 0)
(0.00019816 0.000146923 -1.50811e-23)
(0.000299782 5.98861e-05 1.38511e-23)
(0.000417179 -3.98609e-05 -6.39697e-24)
(0.000551091 -0.000151962 0)
(0.00070207 -0.000275801 -5.31733e-24)
(0.000870404 -0.00041045 4.90994e-24)
(0.00105603 -0.000554609 4.35011e-24)
(0.00125843 -0.000706554 3.81567e-24)
(0.00147656 -0.00086408 0)
(0.00170868 -0.00102439 6.46868e-24)
(0.0019521 -0.00118429 0)
(0.00220452 -0.00133986 0)
(0.002455 -0.00148989 4.61993e-24)
(0.0027361 -0.00161797 7.19625e-24)
(-1.8877e-05 3.60473e-05 0)
(-5.22549e-05 0.000101292 0)
(-8.19003e-05 0.000161688 0)
(-0.000107296 0.000216559 9.30585e-24)
(-0.000127885 0.000265206 8.7772e-24)
(-0.000143058 0.000306918 -1.2479e-23)
(-0.000152151 0.000340987 3.9315e-24)
(-0.000154456 0.000366706 -7.22822e-24)
(-0.00014922 0.00038338 6.83852e-24)
(-0.000135639 0.000390337 -1.28771e-23)
(-0.000112863 0.000386929 3.55174e-26)
(-7.99966e-05 0.000372549 3.49407e-26)
(-3.61085e-05 0.000346649 5.269e-24)
(1.97633e-05 0.000308741 0)
(8.85979e-05 0.000258425 -1.33726e-23)
(0.000171374 0.0001954 8.3207e-24)
(0.000269048 0.000119489 7.59304e-24)
(0.000382504 3.06726e-05 -7.16593e-24)
(0.000512533 -7.08851e-05 6.59713e-24)
(0.000659767 -0.000184795 -5.95954e-24)
(0.000824613 -0.000310392 1.09565e-23)
(0.00100717 -0.000446685 -5.03017e-24)
(0.00120714 -0.000592297 0)
(0.00142371 -0.000745407 1.61877e-23)
(0.00165549 -0.000903694 -1.49134e-23)
(0.00190026 -0.00106422 -2.39443e-26)
(0.00215493 -0.00122371 -5.91802e-24)
(0.00241683 -0.0013781 -4.9556e-24)
(0.00267398 -0.00152666 -4.14515e-24)
(0.0029613 -0.00165119 0)
(-1.92953e-05 3.46685e-05 0)
(-5.31254e-05 9.73409e-05 0)
(-8.27567e-05 0.000155295 4.97176e-24)
(-0.000107621 0.00020785 -9.43712e-24)
(-0.000127112 0.000254299 -9.0004e-24)
(-0.000140566 0.000293926 1.26898e-23)
(-0.000147267 0.000326015 -4.03792e-24)
(-0.000146454 0.000349849 -7.48683e-24)
(-0.000137323 0.000364724 3.54764e-24)
(-0.000119022 0.000369957 0)
(-9.06581e-05 0.000364882 1.2224e-23)
(-5.13011e-05 0.000348886 -1.14328e-23)
(9.25587e-09 0.000321404 0)
(6.42525e-05 0.000281943 0)
(0.000142413 0.000230096 -4.63203e-24)
(0.000235459 0.000165561 -8.58367e-24)
(0.000344312 8.8169e-05 7.93674e-24)
(0.000469802 -2.08489e-06 7.16334e-24)
(0.000612636 -0.000105013 -1.33379e-23)
(0.00077333 -0.000220189 -6.19366e-24)
(0.00095213 -0.0003469 5.67208e-24)
(0.00114893 -0.000484089 -5.07963e-24)
(0.00136316 -0.000630303 4.68522e-24)
(0.00159372 -0.00078363 0)
(0.00183878 -0.00094162 9.25202e-27)
(0.00209571 -0.00110123 2.02971e-23)
(0.00236094 -0.00125914 -6.08412e-24)
(0.00263143 -0.00141114 0)
(0.00289422 -0.00155702 9.26603e-24)
(0.00318642 -0.00167673 -7.6998e-24)
(-1.9519e-05 3.3061e-05 0)
(-5.34354e-05 9.27189e-05 -1.09181e-23)
(-8.27019e-05 0.000147792 1.02391e-23)
(-0.000106699 0.000197601 4.94382e-24)
(-0.000124769 0.000241437 -9.25029e-24)
(-0.000136196 0.000278584 -4.28344e-24)
(-0.000140208 0.000308324 2.03847e-23)
(-0.00013599 0.000329938 -1.9199e-23)
(-0.000122688 0.000342718 1.08334e-23)
(-9.93987e-05 0.000345971 6.7872e-24)
(-6.51876e-05 0.000339031 6.33363e-24)
(-1.9087e-05 0.000321275 0)
(3.98913e-05 0.000292136 -1.08422e-23)
(0.000112744 0.000251117 1.01134e-23)
(0.000200458 0.00019781 1.39791e-23)
(0.000303989 0.00013192 -8.8817e-24)
(0.000424213 5.32926e-05 1.72583e-25)
(0.000561905 -3.8061e-05 -7.37891e-24)
(0.000717678 -0.000141924 6.68857e-24)
(0.000891914 -0.000257831 6.19097e-24)
(0.00108468 -0.000385016 1.27003e-25)
(0.00129565 -0.000522359 0)
(0.00152397 -0.000668331 9.62223e-24)
(0.00176821 -0.000820933 0)
(0.00202605 -0.000977592 7.83158e-24)
(0.00229447 -0.0011352 1.72665e-25)
(0.0025694 -0.00129038 5.99978e-24)
(0.00284742 -0.00143884 -2.50054e-25)
(0.00311468 -0.00158089 -1.85719e-23)
(0.00341022 -0.00169458 1.18087e-23)
(-1.95409e-05 3.12542e-05 0)
(-5.31598e-05 8.75084e-05 -1.11962e-23)
(-8.16899e-05 0.000139311 2.64816e-23)
(-0.00010446 0.00018599 -4.97152e-24)
(-0.000120762 0.000226838 0)
(-0.000129825 0.000261146 1.05699e-25)
(-0.000130822 0.0002882 1.67098e-23)
(-0.000122887 0.000307283 -1.5723e-23)
(-0.000105109 0.000317694 -7.23524e-24)
(-7.65381e-05 0.000318735 6.96768e-24)
(-3.61964e-05 0.000309743 -2.55954e-23)
(1.69202e-05 0.000290098 2.99018e-23)
(8.38269e-05 0.000259232 -2.22063e-23)
(0.000165536 0.000216654 5.12347e-24)
(0.000263035 0.000161963 -9.54856e-24)
(0.000377253 9.48764e-05 8.80617e-24)
(0.000509028 1.52564e-05 8.38182e-24)
(0.000659065 -7.68619e-05 -7.53494e-24)
(0.000827869 -0.000181228 6.83403e-24)
(0.00101567 -0.000297334 -6.3656e-24)
(0.00122236 -0.00042436 9.00508e-26)
(0.00144733 -0.000561123 0)
(0.00168946 -0.000706021 -9.61731e-24)
(0.00194691 -0.000856968 1.92071e-25)
(0.00221691 -0.00101129 1.85747e-25)
(0.00249599 -0.00116583 7.12546e-24)
(0.0027796 -0.0013172 -6.39483e-24)
(0.00306393 -0.00146103 1.11734e-23)
(0.00333436 -0.00159821 9.77485e-24)
(0.00363149 -0.00170477 0)
(-1.93552e-05 2.92765e-05 1.1163e-23)
(-5.22782e-05 8.17899e-05 -2.90817e-24)
(-7.96814e-05 0.000129982 0)
(-0.000100843 0.000173191 -5.07924e-24)
(-0.000115004 0.00021072 0)
(-0.00012134 0.000241869 -4.50758e-24)
(-0.00011897 0.000265934 0)
(-0.000106974 0.000282211 -1.19682e-23)
(-8.43871e-05 0.000290004 -7.3702e-24)
(-5.02149e-05 0.000288623 2.11655e-23)
(-3.43474e-06 0.000277415 6.47644e-24)
(5.69915e-05 0.000255767 -1.82053e-23)
(0.000132104 0.00022312 4.78201e-26)
(0.000222927 0.000178994 2.62879e-23)
(0.000330442 0.000123002 -4.29187e-26)
(0.00045555 5.48819e-05 -1.82024e-23)
(0.000599042 -2.54841e-05 -8.27271e-24)
(0.000761539 -0.00011803 0)
(0.000943426 -0.000222469 7.02885e-24)
(0.00114477 -0.000338245 6.49705e-24)
(0.00136524 -0.000464485 -1.20442e-23)
(0.00160398 -0.000599944 0)
(0.00185952 -0.000742953 -1.00328e-23)
(0.00212958 -0.000891326 -8.89286e-24)
(0.00241096 -0.00104234 -7.98377e-24)
(0.00269973 -0.00119281 -6.9304e-24)
(0.00299084 -0.00133934 6.53889e-24)
(0.00328009 -0.00147754 -1.11677e-23)
(0.00355228 -0.0016089 2.33738e-25)
(0.0038491 -0.00170738 8.32576e-24)
(-1.89573e-05 2.71545e-05 0)
(-5.07727e-05 7.56396e-05 -7.03301e-26)
(-7.66418e-05 0.000119929 -1.67644e-23)
(-9.57927e-05 0.000159375 5.22061e-24)
(-0.000107417 0.000193297 0)
(-0.000110637 0.000221007 2.33541e-23)
(-0.00010452 0.000241821 -3.94873e-23)
(-8.80904e-05 0.000255051 8.24709e-24)
(-6.03353e-05 0.000260009 -1.5334e-23)
(-2.02132e-05 0.000256028 7.28538e-24)
(3.33386e-05 0.000242465 0)
(0.00010139 0.000218723 0)
(0.000185004 0.000184261 -5.85485e-24)
(0.000285212 0.000138614 5.43481e-24)
(0.000402978 8.14201e-05 0)
(0.000539175 1.24383e-05 9.13427e-24)
(0.000694533 -6.84194e-05 0)
(0.000869577 -0.000161052 1.57899e-23)
(0.00106456 -0.000265131 -7.26649e-24)
(0.00127936 -0.000380051 0)
(0.00151341 -0.000504884 -6.27876e-24)
(0.00176556 -0.000638327 0)
(0.002034 -0.000778644 2.0257e-23)
(0.00231595 -0.000923562 9.26137e-24)
(0.00260779 -0.00107034 8.33828e-24)
(0.00290511 -0.00121577 0)
(0.0032024 -0.00135651 1.95696e-25)
(0.00349503 -0.00148819 5.89985e-24)
(0.00376745 -0.00161292 -9.99898e-24)
(0.0040619 -0.00170252 -8.32172e-24)
(-1.8343e-05 2.49126e-05 1.17148e-23)
(-4.86279e-05 6.91292e-05 -3.11965e-24)
(-7.25399e-05 0.00010927 -1.32206e-25)
(-8.92589e-05 0.000144707 1.60797e-23)
(-9.79276e-05 0.000174776 -1.5308e-23)
(-9.76182e-05 0.000198813 -4.72098e-24)
(-8.73471e-05 0.000216153 -9.95346e-26)
(-6.60855e-05 0.000226131 -9.2161e-26)
(-3.27742e-05 0.000228078 0)
(1.36723e-05 0.000221349 -1.46329e-23)
(7.43537e-05 0.000205325 2.04383e-23)
(0.000150369 0.000179427 -1.27592e-23)
(0.000242797 0.000143139 1.18312e-23)
(0.000352665 9.60233e-05 -5.43307e-24)
(0.000480924 3.77433e-05 0)
(0.000628404 -3.19119e-05 9.50681e-24)
(0.000795761 -0.000112995 -1.09375e-25)
(0.00098341 -0.000205364 -7.88634e-24)
(0.00119145 -0.000308646 7.35879e-24)
(0.00141956 -0.000422185 -6.80898e-24)
(0.0016669 -0.000544999 2.48564e-23)
(0.00193203 -0.000675728 -2.27315e-23)
(0.00221272 -0.000812571 1.04109e-23)
(0.00250571 -0.000953191 -3.73695e-23)
(0.00280696 -0.00109484 -1.66184e-23)
(0.00311156 -0.00123435 2.30895e-25)
(0.00341355 -0.00136843 1.36758e-23)
(0.00370789 -0.0014928 1.76361e-23)
(0.00397896 -0.00161022 -5.28139e-24)
(0.00426872 -0.00169039 0)
(-1.75087e-05 2.25731e-05 -1.19916e-23)
(-4.58291e-05 6.23244e-05 -1.41583e-25)
(-6.73464e-05 9.81151e-05 5.77088e-24)
(-8.11942e-05 0.00012934 5.42733e-24)
(-8.64685e-05 0.000155357 -2.59999e-23)
(-8.21938e-05 0.000175528 3.90597e-23)
(-6.73355e-05 0.000189217 -2.74906e-23)
(-4.08177e-05 0.000195779 4.29161e-23)
(-1.5364e-06 0.000194578 -1.60897e-23)
(5.16339e-05 0.000184994 -2.25184e-23)
(0.000119826 0.000166435 1.40342e-23)
(0.000204161 0.000138353 6.40662e-26)
(0.000305727 0.000100261 6.12847e-24)
(0.000425544 5.17541e-05 0)
(0.000564539 -7.47285e-06 1.03494e-23)
(0.000723485 -7.75929e-05 -9.4332e-24)
(0.000902952 -0.000158618 1.77306e-23)
(0.00110323 -0.000250364 -8.09644e-24)
(0.00132424 -0.000352407 -7.49792e-24)
(0.00156544 -0.000464041 -6.91939e-24)
(0.00182571 -0.000584234 -1.87741e-23)
(0.00210328 -0.000711571 2.30769e-23)
(0.00239543 -0.000844178 1.0423e-23)
(0.0026985 -0.000979705 -3.60208e-25)
(0.00300797 -0.00111541 -1.77313e-25)
(0.00331845 -0.00124816 0)
(0.00362356 -0.00137479 2.36094e-25)
(0.00391776 -0.00149119 -2.39526e-23)
(0.00418598 -0.00160074 5.02082e-24)
(0.00446841 -0.00167124 -8.97634e-24)
(-1.64503e-05 2.01561e-05 2.09137e-26)
(-4.23616e-05 5.52858e-05 1.88851e-23)
(-6.10327e-05 8.65668e-05 0)