/*--------------------------------*- C++ -*----------------------------------*\
| =========                 |                                                 |
| \\      /  F ield         | foam-extend: Open Source CFD                    |
|  \\    /   O peration     | Version:     4.0                                |
|   \\  /    A nd           | Web:         http://www.foam-extend.org         |
|    \\/     M anipulation  |                                                 |
\*---------------------------------------------------------------------------*/
FoamFile
{
    version     2.0;
    format      ascii;
    class       volScalarField;
    location    "95";
    object      p;
}
// * * * * * * * * * * * * * * * * * * * * * * * * * * * * * * * * * * * * * //

dimensions      [0 2 -2 0 0 0 0];

internalField   nonuniform List<scalar> 
36000
(
-7.31819e-06
-7.34699e-06
-7.37758e-06
-7.40599e-06
-7.43258e-06
-7.45781e-06
-7.48172e-06
-7.50423e-06
-7.52529e-06
-7.54489e-06
-7.56304e-06
-7.57976e-06
-7.59507e-06
-7.60903e-06
-7.62168e-06
-7.63307e-06
-7.64322e-06
-7.65214e-06
-7.65985e-06
-7.66629e-06
-7.67141e-06
-7.67507e-06
-7.6771e-06
-7.67725e-06
-7.67519e-06
-7.6705e-06
-7.66265e-06
-7.65098e-06
-7.63456e-06
-7.61225e-06
-7.3267e-06
-7.35516e-06
-7.38539e-06
-7.41347e-06
-7.43976e-06
-7.46471e-06
-7.48835e-06
-7.51061e-06
-7.53143e-06
-7.55082e-06
-7.56877e-06
-7.5853e-06
-7.60045e-06
-7.61425e-06
-7.62677e-06
-7.63803e-06
-7.64807e-06
-7.65691e-06
-7.66454e-06
-7.67093e-06
-7.676e-06
-7.67965e-06
-7.68169e-06
-7.68187e-06
-7.67987e-06
-7.67527e-06
-7.66756e-06
-7.65613e-06
-7.63986e-06
-7.61664e-06
-7.34356e-06
-7.37134e-06
-7.40086e-06
-7.42829e-06
-7.45397e-06
-7.47836e-06
-7.50147e-06
-7.52323e-06
-7.54359e-06
-7.56255e-06
-7.58009e-06
-7.59626e-06
-7.61107e-06
-7.62457e-06
-7.63681e-06
-7.64782e-06
-7.65764e-06
-7.66629e-06
-7.67377e-06
-7.68004e-06
-7.68504e-06
-7.68864e-06
-7.69069e-06
-7.69093e-06
-7.68904e-06
-7.6846e-06
-7.67716e-06
-7.66616e-06
-7.6502e-06
-7.62517e-06
-7.3685e-06
-7.39528e-06
-7.42376e-06
-7.45023e-06
-7.47503e-06
-7.49858e-06
-7.5209e-06
-7.54193e-06
-7.5616e-06
-7.57991e-06
-7.59686e-06
-7.61248e-06
-7.62678e-06
-7.63982e-06
-7.65163e-06
-7.66227e-06
-7.67176e-06
-7.68012e-06
-7.68735e-06
-7.69343e-06
-7.69829e-06
-7.70182e-06
-7.70385e-06
-7.70415e-06
-7.70239e-06
-7.69818e-06
-7.69109e-06
-7.68068e-06
-7.66519e-06
-7.63747e-06
-7.40115e-06
-7.42665e-06
-7.45377e-06
-7.47899e-06
-7.50263e-06
-7.52509e-06
-7.54639e-06
-7.56645e-06
-7.58521e-06
-7.60268e-06
-7.61884e-06
-7.63372e-06
-7.64735e-06
-7.65976e-06
-7.67101e-06
-7.68113e-06
-7.69015e-06
-7.69811e-06
-7.705e-06
-7.7108e-06
-7.71545e-06
-7.71885e-06
-7.72082e-06
-7.72115e-06
-7.71953e-06
-7.71555e-06
-7.70887e-06
-7.69916e-06
-7.68432e-06
-7.65297e-06
-7.44104e-06
-7.46498e-06
-7.49047e-06
-7.51418e-06
-7.53642e-06
-7.55756e-06
-7.5776e-06
-7.59647e-06
-7.61413e-06
-7.63054e-06
-7.64573e-06
-7.65969e-06
-7.67247e-06
-7.6841e-06
-7.69462e-06
-7.70408e-06
-7.71251e-06
-7.71993e-06
-7.72637e-06
-7.73178e-06
-7.73613e-06
-7.7393e-06
-7.74115e-06
-7.74146e-06
-7.73994e-06
-7.73618e-06
-7.72991e-06
-7.72097e-06
-7.70697e-06
-7.6708e-06
-7.48761e-06
-7.50977e-06
-7.53336e-06
-7.55534e-06
-7.57597e-06
-7.59557e-06
-7.61415e-06
-7.63163e-06
-7.64798e-06
-7.66316e-06
-7.67718e-06
-7.69005e-06
-7.70181e-06
-7.71248e-06
-7.72212e-06
-7.73076e-06
-7.73844e-06
-7.7452e-06
-7.75103e-06
-7.75594e-06
-7.75986e-06
-7.7627e-06
-7.76433e-06
-7.76453e-06
-7.76301e-06
-7.75942e-06
-7.75353e-06
-7.74538e-06
-7.73245e-06
-7.68995e-06
-7.54023e-06
-7.56041e-06
-7.58192e-06
-7.60197e-06
-7.62078e-06
-7.63865e-06
-7.65559e-06
-7.67151e-06
-7.68636e-06
-7.70013e-06
-7.71281e-06
-7.72442e-06
-7.73498e-06
-7.74453e-06
-7.75311e-06
-7.76077e-06
-7.76754e-06
-7.77347e-06
-7.77855e-06
-7.7828e-06
-7.78615e-06
-7.78852e-06
-7.78978e-06
-7.78974e-06
-7.78812e-06
-7.78458e-06
-7.77898e-06
-7.77151e-06
-7.75993e-06
-7.70942e-06
-7.59825e-06
-7.6163e-06
-7.63556e-06
-7.6535e-06
-7.67035e-06
-7.68634e-06
-7.70146e-06
-7.71565e-06
-7.72885e-06
-7.74104e-06
-7.75222e-06
-7.76239e-06
-7.77158e-06
-7.77983e-06
-7.78719e-06
-7.79369e-06
-7.79938e-06
-7.8043e-06
-7.80847e-06
-7.81187e-06
-7.81448e-06
-7.8162e-06
-7.81693e-06
-7.81648e-06
-7.81461e-06
-7.81097e-06
-7.80552e-06
-7.79848e-06
-7.78871e-06
-7.72758e-06
-7.66096e-06
-7.67679e-06
-7.69367e-06
-7.7094e-06
-7.72414e-06
-7.73812e-06
-7.7513e-06
-7.76361e-06
-7.77501e-06
-7.78546e-06
-7.79497e-06
-7.80354e-06
-7.8112e-06
-7.81798e-06
-7.82393e-06
-7.82909e-06
-7.83352e-06
-7.83725e-06
-7.8403e-06
-7.84267e-06
-7.84433e-06
-7.84521e-06
-7.84521e-06
-7.84417e-06
-7.84186e-06
-7.8379e-06
-7.83227e-06
-7.82544e-06
-7.81895e-06
-7.74125e-06
-7.72771e-06
-7.74124e-06
-7.75566e-06
-7.76909e-06
-7.78164e-06
-7.7935e-06
-7.80462e-06
-7.81494e-06
-7.8244e-06
-7.83298e-06
-7.84068e-06
-7.84749e-06
-7.85344e-06
-7.85857e-06
-7.86293e-06
-7.86657e-06
-7.86954e-06
-7.87187e-06
-7.8736e-06
-7.87473e-06
-7.87523e-06
-7.87505e-06
-7.8741e-06
-7.87224e-06
-7.86924e-06
-7.86467e-06
-7.85841e-06
-7.8512e-06
-7.85235e-06
-7.74702e-06
-7.79782e-06
-7.80903e-06
-7.82096e-06
-7.83204e-06
-7.84234e-06
-7.852e-06
-7.86098e-06
-7.8692e-06
-7.87661e-06
-7.8832e-06
-7.88893e-06
-7.89383e-06
-7.89791e-06
-7.90123e-06
-7.90382e-06
-7.90575e-06
-7.90706e-06
-7.90779e-06
-7.90797e-06
-7.90763e-06
-7.90673e-06
-7.90524e-06
-7.90308e-06
-7.90014e-06
-7.8962e-06
-7.89081e-06
-7.88355e-06
-7.87443e-06
-7.88789e-06
-7.75254e-06
-7.8707e-06
-7.8796e-06
-7.88905e-06
-7.89775e-06
-7.90578e-06
-7.91319e-06
-7.91995e-06
-7.926e-06
-7.93127e-06
-7.93574e-06
-7.93939e-06
-7.94223e-06
-7.94429e-06
-7.94562e-06
-7.94628e-06
-7.9463e-06
-7.94574e-06
-7.94464e-06
-7.94304e-06
-7.94097e-06
-7.93842e-06
-7.93537e-06
-7.93177e-06
-7.92748e-06
-7.92233e-06
-7.91589e-06
-7.908e-06
-7.89868e-06
-7.90398e-06
-7.77823e-06
-7.9458e-06
-7.95245e-06
-7.95944e-06
-7.96579e-06
-7.97153e-06
-7.97667e-06
-7.98118e-06
-7.98498e-06
-7.98802e-06
-7.99028e-06
-7.99172e-06
-7.99238e-06
-7.99228e-06
-7.99148e-06
-7.99001e-06
-7.98793e-06
-7.98527e-06
-7.98211e-06
-7.97848e-06
-7.97443e-06
-7.97e-06
-7.96516e-06
-7.95987e-06
-7.954e-06
-7.94737e-06
-7.93961e-06
-7.93086e-06
-7.92137e-06
-7.91962e-06
-7.79832e-06
-8.02268e-06
-8.02714e-06
-8.03174e-06
-8.03578e-06
-8.03924e-06
-8.04212e-06
-8.04434e-06
-8.04585e-06
-8.04659e-06
-8.04654e-06
-8.0457e-06
-8.04407e-06
-8.04168e-06
-8.03858e-06
-8.03479e-06
-8.03037e-06
-8.02539e-06
-8.01993e-06
-8.01407e-06
-8.00785e-06
-8.0013e-06
-7.99442e-06
-7.98718e-06
-7.97948e-06
-7.97114e-06
-7.9618e-06
-7.95181e-06
-7.94147e-06
-7.93605e-06
-7.81132e-06
-8.10096e-06
-8.10332e-06
-8.10562e-06
-8.10742e-06
-8.10865e-06
-8.10928e-06
-8.10922e-06
-8.10841e-06
-8.10681e-06
-8.10439e-06
-8.10116e-06
-8.09713e-06
-8.09229e-06
-8.08667e-06
-8.08036e-06
-8.07342e-06
-8.06595e-06
-8.05802e-06
-8.04971e-06
-8.04108e-06
-8.03219e-06
-8.02305e-06
-8.01363e-06
-8.00386e-06
-7.99356e-06
-7.9824e-06
-7.97084e-06
-7.95925e-06
-7.95148e-06
-7.81924e-06
-8.18035e-06
-8.18074e-06
-8.18084e-06
-8.18046e-06
-8.17952e-06
-8.17792e-06
-8.17559e-06
-8.17246e-06
-8.16849e-06
-8.16365e-06
-8.15792e-06
-8.15131e-06
-8.14386e-06
-8.13562e-06
-8.12666e-06
-8.11707e-06
-8.10692e-06
-8.09632e-06
-8.08536e-06
-8.07412e-06
-8.06266e-06
-8.05103e-06
-8.03922e-06
-8.02716e-06
-8.01469e-06
-8.0015e-06
-7.98813e-06
-7.97497e-06
-7.96534e-06
-7.82299e-06
-8.2607e-06
-8.25922e-06
-8.25724e-06
-8.25477e-06
-8.2517e-06
-8.24791e-06
-8.24331e-06
-8.23784e-06
-8.23145e-06
-8.22411e-06
-8.21581e-06
-8.20658e-06
-8.19644e-06
-8.18546e-06
-8.17371e-06
-8.16129e-06
-8.1483e-06
-8.13485e-06
-8.12104e-06
-8.10699e-06
-8.09278e-06
-8.07846e-06
-8.06406e-06
-8.04952e-06
-8.0347e-06
-8.01928e-06
-8.0039e-06
-7.98893e-06
-7.97777e-06
-7.82298e-06
-8.34196e-06
-8.33874e-06
-8.33479e-06
-8.33032e-06
-8.32518e-06
-8.31923e-06
-8.31238e-06
-8.30456e-06
-8.29572e-06
-8.28585e-06
-8.27492e-06
-8.26297e-06
-8.25005e-06
-8.23621e-06
-8.22155e-06
-8.20616e-06
-8.19016e-06
-8.17369e-06
-8.15688e-06
-8.13985e-06
-8.12271e-06
-8.10554e-06
-8.08837e-06
-8.07119e-06
-8.05385e-06
-8.03604e-06
-8.01848e-06
-8.0015e-06
-7.98905e-06
-7.8196e-06
-8.4242e-06
-8.41935e-06
-8.41353e-06
-8.40713e-06
-8.39999e-06
-8.39193e-06
-8.38284e-06
-8.37267e-06
-8.36137e-06
-8.34892e-06
-8.33531e-06
-8.32058e-06
-8.30478e-06
-8.28798e-06
-8.27027e-06
-8.25178e-06
-8.23265e-06
-8.21303e-06
-8.19306e-06
-8.1729e-06
-8.15268e-06
-8.13251e-06
-8.11244e-06
-8.09247e-06
-8.07248e-06
-8.05216e-06
-8.03229e-06
-8.01313e-06
-7.99957e-06
-7.81327e-06
-8.50755e-06
-8.50118e-06
-8.49359e-06
-8.48535e-06
-8.47625e-06
-8.4661e-06
-8.4548e-06
-8.44227e-06
-8.42849e-06
-8.41342e-06
-8.39708e-06
-8.3795e-06
-8.36075e-06
-8.34089e-06
-8.32004e-06
-8.29834e-06
-8.27596e-06
-8.25307e-06
-8.22983e-06
-8.20642e-06
-8.183e-06
-8.1597e-06
-8.13662e-06
-8.11376e-06
-8.09102e-06
-8.06806e-06
-8.04575e-06
-8.02427e-06
-8.00976e-06
-7.80441e-06
-8.59228e-06
-8.58446e-06
-8.57517e-06
-8.56514e-06
-8.55414e-06
-8.54193e-06
-8.52841e-06
-8.51353e-06
-8.49724e-06
-8.47953e-06
-8.46041e-06
-8.43993e-06
-8.41814e-06
-8.39514e-06
-8.37107e-06
-8.34609e-06
-8.32036e-06
-8.2941e-06
-8.26749e-06
-8.24073e-06
-8.21402e-06
-8.18751e-06
-8.16132e-06
-8.13548e-06
-8.10989e-06
-8.08419e-06
-8.05933e-06
-8.03538e-06
-8.02003e-06
-7.79355e-06
-8.67869e-06
-8.66948e-06
-8.65856e-06
-8.64678e-06
-8.63389e-06
-8.61963e-06
-8.60391e-06
-8.58666e-06
-8.56784e-06
-8.54745e-06
-8.52552e-06
-8.50207e-06
-8.47719e-06
-8.45099e-06
-8.42363e-06
-8.39528e-06
-8.36614e-06
-8.33643e-06
-8.30637e-06
-8.2762e-06
-8.24613e-06
-8.21634e-06
-8.18698e-06
-8.15809e-06
-8.12955e-06
-8.10099e-06
-8.07344e-06
-8.04684e-06
-8.0307e-06
-7.78131e-06
-8.76715e-06
-8.75659e-06
-8.74406e-06
-8.73055e-06
-8.71578e-06
-8.69948e-06
-8.68154e-06
-8.66189e-06
-8.64052e-06
-8.61743e-06
-8.59263e-06
-8.56617e-06
-8.53815e-06
-8.50871e-06
-8.478e-06
-8.44623e-06
-8.41362e-06
-8.38041e-06
-8.34686e-06
-8.31322e-06
-8.27974e-06
-8.24663e-06
-8.21403e-06
-8.18199e-06
-8.15041e-06
-8.11887e-06
-8.08844e-06
-8.05896e-06
-8.04185e-06
-7.76845e-06
-8.85809e-06
-8.84619e-06
-8.83205e-06
-8.8168e-06
-8.80014e-06
-8.78177e-06
-8.76158e-06
-8.73953e-06
-8.71558e-06
-8.68974e-06
-8.66203e-06
-8.63252e-06
-8.60132e-06
-8.56858e-06
-8.53449e-06
-8.49926e-06
-8.46314e-06
-8.4264e-06
-8.38933e-06
-8.3522e-06
-8.31529e-06
-8.27879e-06
-8.24288e-06
-8.20763e-06
-8.17289e-06
-8.13819e-06
-8.10464e-06
-8.07195e-06
-8.05332e-06
-7.75609e-06
-8.95195e-06
-8.93868e-06
-8.92291e-06
-8.90589e-06
-8.88731e-06
-8.86684e-06
-8.84437e-06
-8.81985e-06
-8.79329e-06
-8.76465e-06
-8.734e-06
-8.7014e-06
-8.66699e-06
-8.63093e-06
-8.59343e-06
-8.55471e-06
-8.51507e-06
-8.47479e-06
-8.43418e-06
-8.39354e-06
-8.35314e-06
-8.31321e-06
-8.27394e-06
-8.23537e-06
-8.19733e-06
-8.15928e-06
-8.12225e-06
-8.08591e-06
-8.06461e-06
-7.74593e-06
-9.04918e-06
-9.03449e-06
-9.01703e-06
-8.99819e-06
-8.97763e-06
-8.955e-06
-8.9302e-06
-8.90319e-06
-8.87395e-06
-8.84248e-06
-8.80884e-06
-8.77312e-06
-8.73547e-06
-8.69607e-06
-8.65513e-06
-8.61293e-06
-8.56976e-06
-8.52593e-06
-8.48177e-06
-8.43758e-06
-8.39367e-06
-8.35028e-06
-8.30757e-06
-8.26558e-06
-8.22407e-06
-8.18239e-06
-8.14143e-06
-8.10078e-06
-8.07375e-06
-7.73876e-06
-9.15023e-06
-9.13404e-06
-9.1148e-06
-9.09406e-06
-9.07145e-06
-9.0466e-06
-9.01941e-06
-8.98983e-06
-8.95786e-06
-8.92351e-06
-8.88685e-06
-8.84798e-06
-8.80707e-06
-8.7643e-06
-8.71993e-06
-8.67424e-06
-8.62754e-06
-8.58015e-06
-8.53242e-06
-8.48468e-06
-8.43722e-06
-8.39031e-06
-8.34409e-06
-8.29856e-06
-8.25339e-06
-8.20783e-06
-8.16232e-06
-8.11575e-06
-8.07345e-06
-7.72811e-06
-9.25553e-06
-9.23773e-06
-9.2166e-06
-9.19385e-06
-9.16909e-06
-9.14194e-06
-9.11228e-06
-9.08007e-06
-9.0453e-06
-9.00802e-06
-8.9683e-06
-8.92625e-06
-8.88205e-06
-8.83592e-06
-8.78812e-06
-8.73893e-06
-8.68869e-06
-8.63774e-06
-8.58644e-06
-8.53512e-06
-8.48409e-06
-8.4336e-06
-8.38378e-06
-8.33458e-06
-8.28561e-06
-8.23606e-06
-8.18534e-06
-8.12986e-06
-8.05239e-06
-7.71028e-06
-9.36544e-06
-9.34591e-06
-9.32275e-06
-9.29788e-06
-9.27087e-06
-9.24132e-06
-9.2091e-06
-9.17417e-06
-9.13655e-06
-9.09629e-06
-9.05346e-06
-9.00821e-06
-8.96071e-06
-8.9112e-06
-8.85995e-06
-8.80726e-06
-8.75349e-06
-8.69897e-06
-8.64408e-06
-8.58916e-06
-8.5345e-06
-8.48036e-06
-8.42683e-06
-8.37388e-06
-8.32115e-06
-8.26798e-06
-8.21239e-06
-8.14856e-06
-8.03105e-06
-7.80501e-06
-9.4803e-06
-9.45888e-06
-9.43355e-06
-9.40643e-06
-9.37705e-06
-9.34499e-06
-9.3101e-06
-9.27238e-06
-9.23184e-06
-9.18854e-06
-9.14257e-06
-9.09408e-06
-9.04326e-06
-8.99036e-06
-8.93565e-06
-8.87946e-06
-8.82214e-06
-8.76405e-06
-8.70554e-06
-8.64697e-06
-8.58861e-06
-8.53069e-06
-8.47333e-06
-8.41653e-06
-8.36018e-06
-8.30432e-06
-8.247e-06
-8.18949e-06
-8.09942e-06
-8.36231e-06
-9.60037e-06
-9.57691e-06
-9.54924e-06
-9.51972e-06
-9.48784e-06
-9.45314e-06
-9.4155e-06
-9.37489e-06
-9.33136e-06
-9.28497e-06
-9.23581e-06
-9.18405e-06
-9.12989e-06
-9.07358e-06
-9.01541e-06
-8.95571e-06
-8.89483e-06
-8.83313e-06
-8.77097e-06
-8.70865e-06
-8.64645e-06
-8.58457e-06
-8.5231e-06
-8.46206e-06
-8.40145e-06
-8.34164e-06
-8.28108e-06
-8.22627e-06
-8.15025e-06
-8.47926e-06
-9.72585e-06
-9.70018e-06
-9.67e-06
-9.63792e-06
-9.60341e-06
-9.56596e-06
-9.52544e-06
-9.48187e-06
-9.43528e-06
-9.38573e-06
-9.33334e-06
-9.27827e-06
-9.22074e-06
-9.161e-06
-9.09935e-06
-9.03613e-06
-8.97167e-06
-8.90632e-06
-8.84041e-06
-8.77424e-06
-8.70802e-06
-8.64191e-06
-8.57594e-06
-8.51008e-06
-8.44427e-06
-8.37889e-06
-8.31228e-06
-8.25199e-06
-8.16375e-06
-8.43552e-06
-9.85685e-06
-9.8288e-06
-9.79593e-06
-9.76114e-06
-9.72385e-06
-9.68353e-06
-9.64005e-06
-9.59342e-06
-9.54368e-06
-9.49092e-06
-9.43524e-06
-9.37683e-06
-9.31591e-06
-9.25272e-06
-9.18758e-06
-9.1208e-06
-9.05271e-06
-8.98364e-06
-8.91388e-06
-8.84368e-06
-8.77321e-06
-8.70253e-06
-8.6316e-06
-8.56026e-06
-8.48829e-06
-8.41592e-06
-8.34103e-06
-8.27027e-06
-8.16544e-06
-8.38512e-06
-9.99341e-06
-9.9628e-06
-9.92707e-06
-9.88941e-06
-9.84921e-06
-9.8059e-06
-9.75935e-06
-9.70957e-06
-9.65662e-06
-9.60058e-06
-9.54158e-06
-9.47979e-06
-9.41544e-06
-9.34878e-06
-9.28011e-06
-9.20972e-06
-9.13794e-06
-9.06504e-06
-8.99129e-06
-8.91685e-06
-8.84183e-06
-8.76619e-06
-8.68975e-06
-8.6122e-06
-8.53318e-06
-8.45251e-06
-8.36763e-06
-8.28418e-06
-8.16315e-06
-8.33627e-06
-1.01355e-05
-1.01021e-05
-1.00634e-05
-1.00227e-05
-9.97946e-06
-9.93305e-06
-9.88332e-06
-9.83032e-06
-9.77409e-06
-9.71472e-06
-9.65235e-06
-9.58715e-06
-9.51933e-06
-9.44916e-06
-9.37691e-06
-9.30286e-06
-9.22728e-06
-9.15042e-06
-9.07247e-06
-8.99353e-06
-8.9136e-06
-8.83254e-06
-8.74998e-06
-8.66553e-06
-8.57851e-06
-8.48841e-06
-8.39231e-06
-8.29487e-06
-8.15822e-06
-8.28653e-06
-1.02829e-05
-1.02467e-05
-1.02047e-05
-1.01609e-05
-1.01145e-05
-1.00649e-05
-1.00119e-05
-9.95558e-06
-9.89601e-06
-9.83326e-06
-9.76747e-06
-9.69882e-06
-9.62751e-06
-9.55378e-06
-9.47789e-06
-9.40007e-06
-9.32058e-06
-9.23958e-06
-9.15719e-06
-9.07343e-06
-8.98818e-06
-8.90115e-06
-8.81187e-06
-8.71971e-06
-8.62378e-06
-8.52321e-06
-8.41504e-06
-8.30282e-06
-8.15102e-06
-8.23609e-06
-1.04355e-05
-1.03963e-05
-1.03509e-05
-1.03038e-05
-1.02542e-05
-1.02012e-05
-1.01449e-05
-1.00852e-05
-1.00222e-05
-9.95608e-06
-9.88684e-06
-9.81469e-06
-9.73984e-06
-9.66249e-06
-9.58287e-06
-9.50118e-06
-9.4176e-06
-9.33224e-06
-9.24513e-06
-9.15618e-06
-9.06512e-06
-8.97153e-06
-8.87486e-06
-8.77418e-06
-8.66842e-06
-8.55657e-06
-8.43546e-06
-8.30806e-06
-8.14164e-06
-8.18554e-06
-1.05929e-05
-1.05505e-05
-1.05017e-05
-1.04512e-05
-1.03982e-05
-1.03419e-05
-1.02821e-05
-1.0219e-05
-1.01526e-05
-1.0083e-05
-1.00102e-05
-9.93457e-06
-9.85611e-06
-9.77507e-06
-9.69162e-06
-9.60591e-06
-9.51805e-06
-9.42807e-06
-9.33589e-06
-9.24129e-06
-9.14389e-06
-9.04317e-06
-8.93831e-06
-8.82831e-06
-8.71189e-06
-8.58794e-06
-8.45326e-06
-8.3104e-06
-8.12981e-06
-8.13481e-06
-1.07548e-05
-1.07091e-05
-1.06567e-05
-1.06027e-05
-1.05462e-05
-1.04865e-05
-1.04233e-05
-1.03567e-05
-1.02868e-05
-1.02137e-05
-1.01374e-05
-1.00582e-05
-9.97606e-06
-9.89123e-06
-9.80382e-06
-9.71391e-06
-9.62153e-06
-9.52661e-06
-9.42896e-06
-9.32823e-06
-9.22393e-06
-9.11534e-06
-9.00155e-06
-8.88136e-06
-8.75354e-06
-8.61669e-06
-8.46793e-06
-8.30944e-06
-8.11502e-06
-8.08346e-06
-1.09207e-05
-1.08716e-05
-1.08155e-05
-1.07579e-05
-1.06979e-05
-1.06347e-05
-1.0568e-05
-1.04979e-05
-1.04245e-05
-1.03479e-05
-1.02681e-05
-1.01852e-05
-1.00993e-05
-1.00106e-05
-9.91907e-06
-9.82475e-06
-9.72757e-06
-9.62734e-06
-9.52377e-06
-9.41636e-06
-9.30452e-06
-9.18734e-06
-9.06379e-06
-8.93266e-06
-8.79256e-06
-8.64218e-06
-8.47892e-06
-8.30469e-06
-8.09667e-06
-8.03082e-06
-1.10899e-05
-1.10373e-05
-1.09775e-05
-1.09163e-05
-1.08528e-05
-1.0786e-05
-1.07158e-05
-1.06422e-05
-1.05653e-05
-1.04851e-05
-1.04017e-05
-1.03151e-05
-1.02255e-05
-1.01327e-05
-1.00369e-05
-9.93791e-06
-9.8356e-06
-9.72966e-06
-9.61964e-06
-9.505e-06
-9.38489e-06
-9.25837e-06
-9.12425e-06
-8.98137e-06
-8.82825e-06
-8.66374e-06
-8.4856e-06
-8.29558e-06
-8.07414e-06
-7.97617e-06
-1.12618e-05
-1.12058e-05
-1.11421e-05
-1.10772e-05
-1.10102e-05
-1.09399e-05
-1.08662e-05
-1.07891e-05
-1.07087e-05
-1.0625e-05
-1.05379e-05
-1.04476e-05
-1.0354e-05
-1.02571e-05
-1.01567e-05
-1.00528e-05
-9.94498e-06
-9.83284e-06
-9.71586e-06
-9.59329e-06
-9.4642e-06
-9.32751e-06
-9.1821e-06
-9.02661e-06
-8.85981e-06
-8.68067e-06
-8.48735e-06
-8.28153e-06
-8.04681e-06
-7.91862e-06
-1.14358e-05
-1.13762e-05
-1.13087e-05
-1.12402e-05
-1.11695e-05
-1.10958e-05
-1.10186e-05
-1.0938e-05
-1.08541e-05
-1.07668e-05
-1.06761e-05
-1.05819e-05
-1.04843e-05
-1.0383e-05
-1.02779e-05
-1.01687e-05
-1.00549e-05
-9.93612e-06
-9.81156e-06
-9.68037e-06
-9.54152e-06
-9.39391e-06
-9.23633e-06
-9.06754e-06
-8.88646e-06
-8.69225e-06
-8.48355e-06
-8.26204e-06
-8.01418e-06
-7.8574e-06
-1.16109e-05
-1.15477e-05
-1.14764e-05
-1.14042e-05
-1.13301e-05
-1.12529e-05
-1.11722e-05
-1.10882e-05
-1.10008e-05
-1.09099e-05
-1.08155e-05
-1.07174e-05
-1.06156e-05
-1.05098e-05
-1.03996e-05
-1.02847e-05
-1.01646e-05
-1.00386e-05
-9.90581e-06
-9.76528e-06
-9.61589e-06
-9.45657e-06
-9.28605e-06
-9.10329e-06
-8.90738e-06
-8.6978e-06
-8.47363e-06
-8.23665e-06
-7.97606e-06
-7.7926e-06
-1.17863e-05
-1.17195e-05
-1.16444e-05
-1.15686e-05
-1.14911e-05
-1.14104e-05
-1.13264e-05
-1.12389e-05
-1.11481e-05
-1.10536e-05
-1.09554e-05
-1.08534e-05
-1.07472e-05
-1.06366e-05
-1.05211e-05
-1.04001e-05
-1.02732e-05
-1.01393e-05
-9.99757e-06
-9.84694e-06
-9.6863e-06
-9.51443e-06
-9.33028e-06
-9.13295e-06
-8.9218e-06
-8.6966e-06
-8.45697e-06
-8.20485e-06
-7.93191e-06
-7.72425e-06
-1.19608e-05
-1.18906e-05
-1.18117e-05
-1.17324e-05
-1.16515e-05
-1.15675e-05
-1.14801e-05
-1.13894e-05
-1.1295e-05
-1.1197e-05
-1.1095e-05
-1.09889e-05
-1.08782e-05
-1.07625e-05
-1.06413e-05
-1.05139e-05
-1.03795e-05
-1.02372e-05
-1.00858e-05
-9.92433e-06
-9.75161e-06
-9.5665e-06
-9.36807e-06
-9.15565e-06
-8.92891e-06
-8.68798e-06
-8.433e-06
-8.1661e-06
-7.88112e-06
-7.65155e-06
-1.21335e-05
-1.20599e-05
-1.19773e-05
-1.18946e-05
-1.18104e-05
-1.17232e-05
-1.16326e-05
-1.15385e-05
-1.14408e-05
-1.13392e-05
-1.12334e-05
-1.1123e-05
-1.10076e-05
-1.08865e-05
-1.07592e-05
-1.06249e-05
-1.04825e-05
-1.0331e-05
-1.01694e-05
-9.99633e-06
-9.81076e-06
-9.61172e-06
-9.39844e-06
-9.17052e-06
-8.92796e-06
-8.67129e-06
-8.40116e-06
-8.11992e-06
-7.82324e-06
-7.57385e-06
-1.23031e-05
-1.22262e-05
-1.21401e-05
-1.20541e-05
-1.19667e-05
-1.18763e-05
-1.17826e-05
-1.16854e-05
-1.15843e-05
-1.14791e-05
-1.13694e-05
-1.12546e-05
-1.11342e-05
-1.10076e-05
-1.08738e-05
-1.0732e-05
-1.0581e-05
-1.04197e-05
-1.0247e-05
-1.00617e-05
-9.86261e-06
-9.64904e-06
-9.42044e-06
-9.17671e-06
-8.91822e-06
-8.64593e-06
-8.36095e-06
-8.06587e-06
-7.75794e-06
-7.49082e-06
-1.24685e-05
-1.23883e-05
-1.22988e-05
-1.22096e-05
-1.21192e-05
-1.20259e-05
-1.19292e-05
-1.18288e-05
-1.17244e-05
-1.16156e-05
-1.15019e-05
-1.13826e-05
-1.1257e-05
-1.11244e-05
-1.09837e-05
-1.08339e-05
-1.06737e-05
-1.0502e-05
-1.03176e-05
-1.01192e-05
-9.90604e-06
-9.67743e-06
-9.43313e-06
-9.1734e-06
-8.899e-06
-8.61131e-06
-8.31189e-06
-8.00354e-06
-7.68488e-06
-7.40205e-06
-1.26281e-05
-1.25448e-05
-1.24521e-05
-1.236e-05
-1.22667e-05
-1.21706e-05
-1.2071e-05
-1.19676e-05
-1.18599e-05
-1.17475e-05
-1.16297e-05
-1.15057e-05
-1.13748e-05
-1.12358e-05
-1.10877e-05
-1.09293e-05
-1.07594e-05
-1.05766e-05
-1.03797e-05
-1.01678e-05
-9.93994e-06
-9.69586e-06
-9.43561e-06
-9.15982e-06
-8.86966e-06
-8.5669e-06
-8.25354e-06
-7.93256e-06
-7.60369e-06
-7.30675e-06
-1.27807e-05
-1.26945e-05
-1.25988e-05
-1.25038e-05
-1.24079e-05
-1.23092e-05
-1.22068e-05
-1.21005e-05
-1.19896e-05
-1.18736e-05
-1.17516e-05
-1.16227e-05
-1.1486e-05
-1.13404e-05
-1.11845e-05
-1.1017e-05
-1.08366e-05
-1.06421e-05
-1.04323e-05
-1.02061e-05
-9.9632e-06
-9.70336e-06
-9.42703e-06
-9.13525e-06
-8.8296e-06
-8.51223e-06
-8.18552e-06
-7.85263e-06
-7.51427e-06
-7.20485e-06
-1.29246e-05
-1.28358e-05
-1.27373e-05
-1.26398e-05
-1.25414e-05
-1.24402e-05
-1.23352e-05
-1.22261e-05
-1.2112e-05
-1.19923e-05
-1.18661e-05
-1.17322e-05
-1.15895e-05
-1.14367e-05
-1.12725e-05
-1.10954e-05
-1.09041e-05
-1.06973e-05
-1.04739e-05
-1.02331e-05
-9.97475e-06
-9.69896e-06
-9.40657e-06
-9.099e-06
-8.77826e-06
-8.44686e-06
-8.1075e-06
-7.76355e-06
-7.41656e-06
-7.09599e-06
-1.30585e-05
-1.29672e-05
-1.28661e-05
-1.27663e-05
-1.26657e-05
-1.25622e-05
-1.24548e-05
-1.2343e-05
-1.22258e-05
-1.21024e-05
-1.19718e-05
-1.18326e-05
-1.16836e-05
-1.15233e-05
-1.13504e-05
-1.11632e-05
-1.09604e-05
-1.07407e-05
-1.05033e-05
-1.02476e-05
-9.97357e-06
-9.68179e-06
-9.37347e-06
-9.05045e-06
-8.71514e-06
-8.37038e-06
-8.01917e-06
-7.66516e-06
-7.31025e-06
-6.97812e-06
-1.31807e-05
-1.30872e-05
-1.29838e-05
-1.28819e-05
-1.27794e-05
-1.26738e-05
-1.25641e-05
-1.24497e-05
-1.23294e-05
-1.22024e-05
-1.20672e-05
-1.19225e-05
-1.17669e-05
-1.15988e-05
-1.14166e-05
-1.12189e-05
-1.10041e-05
-1.07712e-05
-1.05194e-05
-1.02485e-05
-9.95867e-06
-9.65098e-06
-9.32701e-06
-8.98902e-06
-8.63977e-06
-8.28243e-06
-7.92032e-06
-7.55734e-06
-7.19455e-06
-6.85074e-06
-1.32895e-05
-1.31941e-05
-1.30887e-05
-1.2985e-05
-1.28808e-05
-1.27733e-05
-1.26616e-05
-1.25447e-05
-1.24214e-05
-1.22906e-05
-1.21507e-05
-1.20003e-05
-1.18378e-05
-1.16615e-05
-1.14698e-05
-1.1261e-05
-1.10338e-05
-1.07873e-05
-1.05209e-05
-1.02346e-05
-9.92913e-06
-9.60576e-06
-9.26656e-06
-8.91418e-06
-8.55174e-06
-8.18268e-06
-7.8107e-06
-7.43955e-06
-7.06811e-06
-6.71571e-06
-1.33834e-05
-1.32863e-05
-1.31793e-05
-1.30741e-05
-1.29684e-05
-1.28593e-05
-1.27457e-05
-1.26264e-05
-1.25001e-05
-1.23655e-05
-1.22209e-05
-1.20646e-05
-1.18949e-05
-1.17101e-05
-1.15083e-05
-1.12881e-05
-1.10483e-05
-1.07879e-05
-1.05067e-05
-1.02051e-05
-9.88408e-06
-9.54539e-06
-9.19152e-06
-8.82546e-06
-8.45067e-06
-8.07088e-06
-7.69006e-06
-7.31091e-06
-6.93199e-06
-6.57323e-06
-1.34606e-05
-1.33621e-05
-1.32538e-05
-1.31475e-05
-1.30405e-05
-1.29301e-05
-1.28148e-05
-1.26932e-05
-1.2564e-05
-1.24255e-05
-1.2276e-05
-1.21137e-05
-1.19366e-05
-1.17429e-05
-1.15308e-05
-1.1299e-05
-1.10461e-05
-1.07718e-05
-1.04758e-05
-1.0159e-05
-9.82274e-06
-9.46924e-06
-9.10135e-06
-8.72244e-06
-8.33624e-06
-7.94681e-06
-7.55805e-06
-7.1706e-06
-6.78713e-06
-6.42257e-06
-1.35195e-05
-1.342e-05
-1.33107e-05
-1.32036e-05
-1.30957e-05
-1.29842e-05
-1.28673e-05
-1.27435e-05
-1.26114e-05
-1.24691e-05
-1.23146e-05
-1.2146e-05
-1.19613e-05
-1.17585e-05
-1.15359e-05
-1.12921e-05
-1.10262e-05
-1.07378e-05
-1.04271e-05
-1.00954e-05
-9.74438e-06
-9.3767e-06
-8.99559e-06
-8.60474e-06
-8.20819e-06
-7.81023e-06
-7.4139e-06
-7.01909e-06
-6.63318e-06
-6.26336e-06
-1.35584e-05
-1.34583e-05
-1.33484e-05
-1.32407e-05
-1.31323e-05
-1.30198e-05
-1.29016e-05
-1.27758e-05
-1.26408e-05
-1.24946e-05
-1.23351e-05
-1.21601e-05
-1.19675e-05
-1.17554e-05
-1.15221e-05
-1.12663e-05
-1.09872e-05
-1.06849e-05
-1.03598e-05
-1.00136e-05
-9.64837e-06
-9.26726e-06
-8.87382e-06
-8.47206e-06
-8.06631e-06
-7.66077e-06
-7.25684e-06
-6.85737e-06
-6.46984e-06
-6.09511e-06
-7.58396e-06
-7.54055e-06
-7.49001e-06
-7.42632e-06
-7.34854e-06
-7.25413e-06
-7.14027e-06
-7.00472e-06
-6.84504e-06
-6.6587e-06
-6.44269e-06
-6.19483e-06
-5.91333e-06
-5.59713e-06
-5.24612e-06
-4.86137e-06
-4.44533e-06
-4.00197e-06
-3.53689e-06
-3.05708e-06
-2.57067e-06
-2.08724e-06
-1.61646e-06
-1.16801e-06
-7.50389e-07
-3.70925e-07
-3.59821e-08
2.50334e-07
4.85926e-07
6.70787e-07
8.06774e-07
8.97372e-07
9.47289e-07
9.62048e-07
9.47606e-07
9.10006e-07
8.55149e-07
7.88572e-07
7.1529e-07
6.39632e-07
5.65078e-07
4.94204e-07
4.28634e-07
3.69251e-07
3.16254e-07
2.6955e-07
2.28641e-07
1.93154e-07
1.62305e-07
1.35834e-07
1.12765e-07
9.32328e-08
7.59266e-08
6.16696e-08
4.84187e-08
3.81485e-08
2.73574e-08
2.07689e-08
9.59004e-09
1.07551e-08
-7.59084e-06
-7.54607e-06
-7.49582e-06
-7.43227e-06
-7.35469e-06
-7.26054e-06
-7.14721e-06
-7.01174e-06
-6.85231e-06
-6.66629e-06
-6.45064e-06
-6.20311e-06
-5.92191e-06
-5.60597e-06
-5.25515e-06
-4.87052e-06
-4.45451e-06
-4.01109e-06
-3.54586e-06
-3.0658e-06
-2.57907e-06
-2.09525e-06
-1.62402e-06
-1.17507e-06
-7.56903e-07
-3.76882e-07
-4.13787e-08
2.455e-07
4.81635e-07
6.67025e-07
8.03505e-07
8.94572e-07
9.44919e-07
9.60078e-07
9.45993e-07
9.08714e-07
8.5413e-07
7.87786e-07
7.14704e-07
6.39194e-07
5.64754e-07
4.93976e-07
4.2847e-07
3.69136e-07
3.16168e-07
2.69486e-07
2.28591e-07
1.93125e-07
1.62271e-07
1.35825e-07
1.12733e-07
9.32327e-08
7.58976e-08
6.16671e-08
4.84185e-08
3.81309e-08
2.73675e-08
2.0767e-08
9.57535e-09
1.07569e-08
-7.60432e-06
-7.5568e-06
-7.50718e-06
-7.44388e-06
-7.36674e-06
-7.27306e-06
-7.16042e-06
-7.02566e-06
-6.86673e-06
-6.68131e-06
-6.46633e-06
-6.21946e-06
-5.93885e-06
-5.62342e-06
-5.27299e-06
-4.8886e-06
-4.47267e-06
-4.02916e-06
-3.56366e-06
-3.0831e-06
-2.59577e-06
-2.11118e-06
-1.63905e-06
-1.18911e-06
-7.69887e-07
-3.88765e-07
-5.21468e-08
2.35843e-07
4.73066e-07
6.59502e-07
7.96974e-07
8.88971e-07
9.40182e-07
9.56133e-07
9.42766e-07
9.06126e-07
8.52097e-07
7.86223e-07
7.13525e-07
6.38322e-07
5.64117e-07
4.93515e-07
4.2814e-07
3.68898e-07
3.15998e-07
2.69362e-07
2.285e-07
1.93055e-07
1.62217e-07
1.35781e-07
1.127e-07
9.32037e-08
7.58764e-08
6.16477e-08
4.84035e-08
3.81194e-08
2.73586e-08
2.07581e-08
9.57586e-09
1.07456e-08
-7.62394e-06
-7.57227e-06
-7.52364e-06
-7.46073e-06
-7.38426e-06
-7.2913e-06
-7.17956e-06
-7.04588e-06
-6.88789e-06
-6.70338e-06
-6.48938e-06
-6.24348e-06
-5.96376e-06
-5.64909e-06
-5.29925e-06
-4.91524e-06
-4.49946e-06
-4.05583e-06
-3.58994e-06
-3.10869e-06
-2.62048e-06
-2.13478e-06
-1.66135e-06
-1.20996e-06
-7.89175e-07
-4.06431e-07
-6.81686e-08
2.21466e-07
4.60301e-07
6.48286e-07
7.87233e-07
8.80613e-07
9.33109e-07
9.50239e-07
9.37942e-07
9.02255e-07
8.49057e-07
7.83884e-07
7.1176e-07
6.37015e-07
5.63163e-07
4.92825e-07
4.27644e-07
3.68544e-07
3.15743e-07
2.69177e-07
2.28362e-07
1.9295e-07
1.62137e-07
1.35716e-07
1.12649e-07
9.31609e-08
7.58437e-08
6.16189e-08
4.83813e-08
3.81018e-08
2.73461e-08
2.07449e-08
9.57607e-09
1.0729e-08
-7.64898e-06
-7.59179e-06
-7.54457e-06
-7.4822e-06
-7.40664e-06
-7.31465e-06
-7.20409e-06
-7.07175e-06
-6.91513e-06
-6.73191e-06
-6.51923e-06
-6.27461e-06
-5.99609e-06
-5.68245e-06
-5.33343e-06
-4.94996e-06
-4.53441e-06
-4.09068e-06
-3.62432e-06
-3.14222e-06
-2.65288e-06
-2.16576e-06
-1.69065e-06
-1.23739e-06
-8.14572e-07
-4.29715e-07
-8.93026e-08
2.02488e-07
4.43438e-07
6.33462e-07
7.7435e-07
8.69553e-07
9.23744e-07
9.42432e-07
9.31549e-07
8.97121e-07
8.45021e-07
7.80777e-07
7.09415e-07
6.35278e-07
5.61894e-07
4.91907e-07
4.26986e-07
3.68071e-07
3.15404e-07
2.68931e-07
2.2818e-07
1.92812e-07
1.62029e-07
1.3563e-07
1.12581e-07
9.31041e-08
7.57996e-08
6.15807e-08
4.83519e-08
3.8078e-08
2.73297e-08
2.07272e-08
9.57602e-09
1.0707e-08
-7.67857e-06
-7.61452e-06
-7.56924e-06
-7.50752e-06
-7.43312e-06
-7.34236e-06
-7.23325e-06
-7.10253e-06
-6.94764e-06
-6.76611e-06
-6.55511e-06
-6.31213e-06
-6.03513e-06
-5.72282e-06
-5.37486e-06
-4.99214e-06
-4.57696e-06
-4.13317e-06
-3.66627e-06
-3.18326e-06
-2.69259e-06
-2.20377e-06
-1.72665e-06
-1.27113e-06
-8.45853e-07
-4.58424e-07
-1.15384e-07
1.79048e-07
4.22597e-07
6.1513e-07
7.58409e-07
8.5586e-07
9.12144e-07
9.32756e-07
9.2362e-07
8.90749e-07
8.40006e-07
7.76915e-07
7.06498e-07
6.33114e-07
5.60313e-07
4.90764e-07
4.26165e-07
3.67483e-07
3.14981e-07
2.68623e-07
2.27952e-07
1.92638e-07
1.61895e-07
1.35523e-07
1.12496e-07
9.30333e-08
7.57441e-08
6.15331e-08
4.83154e-08
3.80481e-08
2.73096e-08
2.07052e-08
9.57573e-09
1.06797e-08
-7.71183e-06
-7.63949e-06
-7.59678e-06
-7.53583e-06
-7.46281e-06
-7.37357e-06
-7.26616e-06
-7.13736e-06
-6.98455e-06
-6.80509e-06
-6.59616e-06
-6.35517e-06
-6.08004e-06
-5.76938e-06
-5.42278e-06
-5.04104e-06
-4.62639e-06
-4.18264e-06
-3.71525e-06
-3.23127e-06
-2.73914e-06
-2.24841e-06
-1.769e-06
-1.31087e-06
-8.82751e-07
-4.92334e-07
-1.4622e-07
1.51309e-07
3.97913e-07
5.93405e-07
7.39505e-07
8.39614e-07
8.98373e-07
9.21263e-07
9.14195e-07
8.83167e-07
8.34035e-07
7.7231e-07
7.03017e-07
6.30531e-07
5.58423e-07
4.89397e-07
4.25183e-07
3.66779e-07
3.14474e-07
2.68255e-07
2.27678e-07
1.92431e-07
1.61734e-07
1.35395e-07
1.12394e-07
9.29486e-08
7.56773e-08
6.14763e-08
4.82716e-08
3.80121e-08
2.72858e-08
2.06788e-08
9.57522e-09
1.0647e-08
-7.74808e-06
-7.66554e-06
-7.62626e-06
-7.56618e-06
-7.49479e-06
-7.40731e-06
-7.30186e-06
-7.1753e-06
-7.0249e-06
-6.84788e-06
-6.64139e-06
-6.40278e-06
-6.12989e-06
-5.82124e-06
-5.47631e-06
-5.09582e-06
-4.68194e-06
-4.23837e-06
-3.7706e-06
-3.28564e-06
-2.79198e-06
-2.29919e-06
-1.81728e-06
-1.35626e-06
-9.24962e-07
-5.31188e-07
-1.81596e-07
1.19453e-07
3.69542e-07
5.68415e-07
7.17748e-07
8.20905e-07
8.82505e-07
9.08009e-07
9.03318e-07
8.74409e-07
8.27131e-07
7.6698e-07
6.98983e-07
6.27534e-07
5.5623e-07
4.87809e-07
4.24042e-07
3.65961e-07
3.13885e-07
2.67826e-07
2.2736e-07
1.92189e-07
1.61547e-07
1.35246e-07
1.12275e-07
9.285e-08
7.55991e-08
6.141e-08
4.82206e-08
3.797e-08
2.72581e-08
2.06479e-08
9.57448e-09