/*--------------------------------*- C++ -*----------------------------------*\
| =========                 |                                                 |
| \\      /  F ield         | foam-extend: Open Source CFD                    |
|  \\    /   O peration     | Version:     4.0                                |
|   \\  /    A nd           | Web:         http://www.foam-extend.org         |
|    \\/     M anipulation  |                                                 |
\*---------------------------------------------------------------------------*/
FoamFile
{
    version     2.0;
    format      ascii;
    class       surfaceScalarField;
    location    "95";
    object      phi;
}
// * * * * * * * * * * * * * * * * * * * * * * * * * * * * * * * * * * * * * //

dimensions      [0 3 -1 0 0 0 0];

internalField   nonuniform List<scalar> 
71520
(
-1.38865e-10
1.39259e-10
-3.93949e-13
-5.61095e-10
4.23383e-10
-1.15182e-12
-1.28962e-09
7.30434e-10
-1.9131e-12
-2.34783e-09
1.06088e-09
-2.66231e-12
-3.75953e-09
1.41508e-09
-3.38108e-12
-5.54874e-09
1.79326e-09
-4.04777e-12
-7.7397e-09
2.1956e-09
-4.63766e-12
-1.03567e-08
2.62214e-09
-5.12265e-12
-1.34241e-08
3.07287e-09
-5.47105e-12
-1.69661e-08
3.54766e-09
-5.6479e-12
-2.10068e-08
4.04632e-09
-5.61471e-12
-2.55701e-08
4.5686e-09
-5.3292e-12
-3.06795e-08
5.11415e-09
-4.74576e-12
-3.63583e-08
5.68261e-09
-3.81523e-12
-4.26294e-08
6.27355e-09
-2.48485e-12
-4.95151e-08
6.88647e-09
-6.9847e-13
-5.70376e-08
7.52086e-09
1.6036e-12
-6.52182e-08
8.17611e-09
4.48522e-12
-7.40777e-08
8.85152e-09
8.01494e-12
-8.36362e-08
9.54616e-09
1.22666e-11
-9.39123e-08
1.02588e-08
1.73207e-11
-1.04923e-07
1.09877e-08
2.32656e-11
-1.16684e-07
1.17305e-08
3.01989e-11
-1.29206e-07
1.24835e-08
3.82283e-11
-1.42495e-07
1.32416e-08
4.74724e-11
-1.5655e-07
1.39976e-08
5.8061e-11
-1.71363e-07
1.47421e-08
7.01337e-11
-1.86908e-07
1.54612e-08
8.38365e-11
-2.03139e-07
1.61323e-08
9.93169e-11
1.67171e-08
-2.19973e-07
1.16721e-10
-1.37176e-10
2.76436e-10
-5.54332e-10
8.40539e-10
-1.27417e-09
1.45027e-09
-2.31987e-09
2.10657e-09
-3.71493e-09
2.81014e-09
-5.48314e-09
3.56147e-09
-7.6484e-09
4.36085e-09
-1.02347e-08
5.20841e-09
-1.32659e-08
6.10407e-09
-1.67658e-08
7.04759e-09
-2.0758e-08
8.03854e-09
-2.52658e-08
9.07636e-09
-3.0312e-08
1.01603e-08
-3.5919e-08
1.12897e-08
-4.21089e-08
1.24634e-08
-4.89028e-08
1.36804e-08
-5.63216e-08
1.49396e-08
-6.4385e-08
1.62396e-08
-7.31122e-08
1.75787e-08
-8.25211e-08
1.8955e-08
-9.26278e-08
2.03656e-08
-1.03447e-07
2.18068e-08
-1.1499e-07
2.32733e-08
-1.27264e-07
2.47575e-08
-1.40271e-07
2.62485e-08
-1.54005e-07
2.77316e-08
-1.68449e-07
2.91868e-08
-1.83574e-07
3.05858e-08
-1.99325e-07
3.18838e-08
3.30034e-08
-2.15612e-07
-1.33844e-10
4.1028e-10
-5.40983e-10
1.24768e-09
-1.24367e-09
2.15297e-09
-2.26462e-09
3.12752e-09
-3.62681e-09
4.17234e-09
-5.35347e-09
5.28813e-09
-7.46788e-09
6.47526e-09
-9.9933e-09
7.73384e-09
-1.29529e-08
9.06365e-09
-1.63695e-08
1.04642e-08
-2.02657e-08
1.19347e-08
-2.46635e-08
1.34742e-08
-2.95844e-08
1.50813e-08
-3.50493e-08
1.67545e-08
-4.10782e-08
1.84922e-08
-4.76901e-08
2.02923e-08
-5.49032e-08
2.21527e-08
-6.27344e-08
2.40708e-08
-7.11993e-08
2.60436e-08
-8.03114e-08
2.80672e-08
-9.00825e-08
3.01367e-08
-1.00521e-07
3.22454e-08
-1.11632e-07
3.43844e-08
-1.23415e-07
3.65407e-08
-1.35864e-07
3.86967e-08
-1.48961e-07
4.08286e-08
-1.62678e-07
4.29043e-08
-1.76972e-07
4.48793e-08
-1.91774e-07
4.66861e-08
4.82065e-08
-2.06977e-07
-1.28952e-10
5.39232e-10
-5.21373e-10
1.6401e-09
-1.19886e-09
2.83045e-09
-2.18339e-09
4.11205e-09
-3.49721e-09
5.48616e-09
-5.16269e-09
6.9536e-09
-7.20218e-09
8.51475e-09
-9.63792e-09
1.01696e-08
-1.24919e-08
1.19176e-08
-1.57856e-08
1.37579e-08
-1.954e-08
1.56892e-08
-2.37755e-08
1.77096e-08
-2.85114e-08
1.98172e-08
-3.37662e-08
2.20093e-08
-3.9557e-08
2.42831e-08
-4.58999e-08
2.66352e-08
-5.2809e-08
2.90619e-08
-6.02969e-08
3.15587e-08
-6.83739e-08
3.41205e-08
-7.70477e-08
3.67409e-08
-8.63226e-08
3.94116e-08
-9.61992e-08
4.2122e-08
-1.06672e-07
4.48577e-08
-1.17731e-07
4.75993e-08
-1.29355e-07
5.03206e-08
-1.41513e-07
5.29866e-08
-1.54159e-07
5.55508e-08
-1.6723e-07
5.79497e-08
-1.80636e-07
6.00919e-08
6.18135e-08
-1.94243e-07
-1.22621e-10
6.61854e-10
-4.95978e-10
2.01346e-09
-1.14079e-09
3.47526e-09
-2.07809e-09
5.04935e-09
-3.3291e-09
6.73718e-09
-4.91508e-09
8.53958e-09
-6.85717e-09
1.04568e-08
-9.17621e-09
1.24886e-08
-1.18926e-08
1.4634e-08
-1.50261e-08
1.68914e-08
-1.85958e-08
1.92588e-08
-2.26195e-08
2.17333e-08
-2.71139e-08
2.43117e-08
-3.20944e-08
2.69898e-08
-3.75745e-08
2.97632e-08
-4.35659e-08
3.26266e-08
-5.00779e-08
3.55739e-08
-5.71173e-08
3.85981e-08
-6.46875e-08
4.16908e-08
-7.27885e-08
4.48419e-08
-8.14156e-08
4.80387e-08
-9.05583e-08
5.12647e-08
-1.00199e-07
5.44988e-08
-1.10313e-07
5.77129e-08
-1.20863e-07
6.08702e-08
-1.31798e-07
6.39218e-08
-1.43052e-07
6.68045e-08
-1.54534e-07
6.94323e-08
-1.66128e-07
7.16856e-08
7.33467e-08
-1.77661e-07
-1.15005e-10
7.76859e-10
-4.654e-10
2.36385e-09
-1.07081e-09
4.08067e-09
-1.95112e-09
5.92965e-09
-3.12626e-09
7.91233e-09
-4.61613e-09
1.00294e-08
-6.44032e-09
1.2281e-08
-8.61799e-09
1.46663e-08
-1.11676e-08
1.71836e-08
-1.41068e-08
1.98306e-08
-1.7452e-08
2.2604e-08
-2.12183e-08
2.54996e-08
-2.54192e-08
2.85125e-08
-3.00659e-08
3.16366e-08
-3.51678e-08
3.48651e-08
-4.07312e-08
3.819e-08
-4.67596e-08
4.16022e-08
-5.32526e-08
4.50911e-08
-6.02058e-08
4.8644e-08
-6.76094e-08
5.22456e-08
-7.54477e-08
5.5877e-08
-8.36976e-08
5.95145e-08
-9.23267e-08
6.3128e-08
-1.01292e-07
6.66783e-08
-1.10537e-07
7.01152e-08
-1.19989e-07
7.33736e-08
-1.29555e-07
7.637e-08
-1.39115e-07
7.8993e-08
-1.48524e-07
8.10941e-08
8.23764e-08
-1.57553e-07
-1.06283e-10
8.83142e-10
-4.30348e-10
2.68792e-09
-9.90529e-10
4.64085e-09
-1.80531e-09
6.74443e-09
-2.89315e-09
9.00016e-09
-4.27227e-09
1.14086e-08
-5.96047e-09
1.39692e-08
-7.97487e-09
1.66807e-08
-1.03317e-08
1.95405e-08
-1.3046e-08
2.25449e-08
-1.61312e-08
2.56893e-08
-1.95991e-08
2.89675e-08
-2.34592e-08
3.23726e-08
-2.77184e-08
3.58958e-08
-3.23809e-08
3.95275e-08
-3.7447e-08
4.32561e-08
-4.29131e-08
4.70684e-08
-4.8771e-08
5.0949e-08
-5.50067e-08
5.48797e-08
-6.15997e-08
5.88385e-08
-6.85215e-08
6.27988e-08
-7.57343e-08
6.67273e-08
-8.31889e-08
7.05825e-08
-9.08226e-08
7.4312e-08
-9.85563e-08
7.7849e-08
-1.06291e-07
8.11086e-08
-1.13905e-07
8.39838e-08
-1.21246e-07
8.63337e-08
-1.28144e-07
8.79921e-08
8.85264e-08
-1.34294e-07
-9.66577e-11
9.798e-10
-3.9161e-10
2.98287e-09
-9.01709e-10
5.15095e-09
-1.64384e-09
7.48657e-09
-2.63473e-09
9.99105e-09
-3.8907e-09
1.26645e-08
-5.42746e-09
1.5506e-08
-7.25982e-09
1.8513e-08
-9.40137e-09
2.1682e-08
-1.18642e-08
2.50077e-08
-1.46584e-08
2.84835e-08
-1.7792e-08
3.21011e-08
-2.127e-08
3.58506e-08
-2.50944e-08
3.97202e-08
-2.92634e-08
4.36964e-08
-3.37706e-08
4.77633e-08
-3.86048e-08
5.19026e-08
-4.37487e-08
5.60929e-08
-4.91779e-08
6.03088e-08
-5.48597e-08
6.45203e-08
-6.07517e-08
6.86908e-08
-6.68e-08
7.27756e-08
-7.29367e-08
7.67193e-08
-7.90778e-08
8.0453e-08
-8.51195e-08
8.38907e-08
-9.09346e-08
8.69238e-08
-9.63692e-08
8.94184e-08
-1.01235e-07
9.11996e-08
-1.0534e-07
9.20967e-08
9.14759e-08
-1.08289e-07
-8.63418e-11
1.06614e-09
-3.50029e-10
3.24656e-09
-8.06247e-10
5.60717e-09
-1.47009e-09
8.1504e-09
-2.35631e-09
1.08773e-08
-3.47912e-09
1.37874e-08
-4.85187e-09
1.68787e-08
-6.48674e-09
2.01479e-08
-8.39441e-09
2.35897e-08
-1.05836e-08
2.7197e-08
-1.30609e-08
3.09607e-08
-1.58297e-08
3.48699e-08
-1.88905e-08
3.89113e-08
-2.22395e-08
4.30692e-08
-2.58685e-08
4.73255e-08
-2.9764e-08
5.16589e-08
-3.39062e-08
5.60448e-08
-3.82679e-08
6.04546e-08
-4.28135e-08
6.48544e-08
-4.74973e-08
6.92041e-08
-5.22619e-08
7.34554e-08
-5.70359e-08
7.75496e-08
-6.17319e-08
8.14153e-08
-6.6243e-08
8.49641e-08
-7.04395e-08
8.80872e-08
-7.41643e-08
9.06486e-08
-7.72298e-08
9.24839e-08
-7.94144e-08
9.33843e-08
-8.04921e-08
9.31743e-08
9.0949e-08
-7.99651e-08
-7.55553e-11
1.1417e-09
-3.0647e-10
3.47747e-09
-7.06093e-10
6.00679e-09
-1.28753e-09
8.73183e-09
-2.06338e-09
1.16531e-08
-3.04548e-09
1.47695e-08
-4.24459e-09
1.80778e-08
-5.67e-09
2.15733e-08
-7.32915e-09
2.52488e-08
-9.22719e-09
2.9095e-08
-1.13665e-08
3.31e-08
-1.37459e-08
3.72494e-08
-1.63606e-08
4.1526e-08
-1.92009e-08
4.59095e-08
-2.22517e-08
5.03762e-08
-2.54914e-08
5.48987e-08
-2.88914e-08
5.94447e-08
-3.24139e-08
6.39771e-08
-3.60113e-08
6.84518e-08
-3.96242e-08
7.2817e-08
-4.31795e-08
7.70106e-08
-4.65877e-08
8.09579e-08
-4.9741e-08
8.45686e-08
-5.25092e-08
8.77323e-08
-5.47356e-08
9.03136e-08
-5.62332e-08
9.21462e-08
-5.67774e-08
9.3028e-08
-5.61072e-08
9.27141e-08
-5.39911e-08
9.10582e-08
8.67381e-08
-4.97802e-08
-6.45155e-11
1.20621e-09
-2.61788e-10
3.67474e-09
-6.03175e-10
6.34818e-09
-1.09961e-09
9.22827e-09
-1.76136e-09
1.23149e-08
-2.59768e-09
1.56058e-08
-3.61647e-09
1.90966e-08
-4.8239e-09
2.27808e-08
-6.22389e-09
2.66488e-08
-7.81769e-09
3.06888e-08
-9.60321e-09
3.48855e-08
-1.15744e-08
3.92207e-08
-1.37208e-08
4.36724e-08
-1.60262e-08
4.82149e-08
-1.84682e-08
5.28183e-08
-2.10172e-08
5.74476e-08
-2.36346e-08
6.20621e-08
-2.62718e-08
6.66144e-08
-2.88688e-08
7.10488e-08
-3.13518e-08
7.53001e-08
-3.36316e-08
7.92904e-08
-3.56007e-08
8.29269e-08
-3.713e-08
8.60979e-08
-3.80659e-08
8.86682e-08
-3.82251e-08
9.04729e-08
-3.739e-08
9.13111e-08
-3.52998e-08
9.09378e-08
-3.16278e-08
8.90422e-08
-2.61571e-08
8.55874e-08
7.8914e-08
-1.8333e-08
-5.3429e-11
1.25964e-09
-2.16801e-10
3.83811e-09
-4.99338e-10
6.63071e-09
-9.09656e-10
9.63859e-09
-1.45548e-09
1.28607e-08
-2.14329e-09
1.62936e-08
-2.97794e-09
1.99313e-08
-3.96221e-09
2.3765e-08
-5.09628e-09
2.77829e-08
-6.37718e-09
3.19697e-08
-7.79814e-09
3.63065e-08
-9.34786e-09
4.07704e-08
-1.10098e-08
4.53343e-08
-1.27611e-08
4.99663e-08
-1.45719e-08
5.46291e-08
-1.64035e-08
5.92792e-08
-1.82076e-08
6.38662e-08
-1.99242e-08
6.8331e-08
-2.14803e-08
7.26049e-08
-2.27879e-08
7.66077e-08
-2.37413e-08
8.02439e-08
-2.42149e-08
8.34005e-08
-2.40584e-08
8.59415e-08
-2.3094e-08
8.77037e-08
-2.11113e-08
8.84901e-08
-1.78633e-08
8.80631e-08
-1.30655e-08
8.614e-08
-6.39649e-09
8.23732e-08
2.97317e-09
7.62178e-08
6.76774e-08
1.42098e-08
-4.24839e-11
1.30213e-09
-1.72254e-10
3.96788e-09
-3.96269e-10
6.85473e-09
-7.20682e-10
9.96301e-09
-1.15052e-09
1.32905e-08
-1.68931e-09
1.68324e-08
-2.33865e-09
2.05806e-08
-3.0977e-09
2.45241e-08
-3.96268e-09
2.86479e-08
-4.92617e-09
3.29332e-08
-5.97644e-09
3.73567e-08
-7.09664e-09
4.18906e-08
-8.26403e-09
4.65017e-08
-9.4488e-09
5.1151e-08
-1.06129e-08
5.57932e-08
-1.17086e-08
6.0375e-08
-1.26773e-08
6.48349e-08
-1.34475e-08
6.91012e-08
-1.39335e-08
7.30908e-08
-1.40327e-08
7.67069e-08
-1.36231e-08
7.98342e-08
-1.25597e-08
8.2337e-08
-1.06714e-08
8.40532e-08
-7.75684e-09
8.47892e-08
-3.57921e-09
8.43125e-08
2.13877e-09
8.23451e-08
9.72304e-09
7.85557e-08
1.95555e-08
7.25407e-08
3.20436e-08
6.37297e-08
5.19241e-08
4.7797e-08
-3.18417e-11
1.33397e-09
-1.28791e-10
4.06483e-09
-2.95437e-10
7.02137e-09
-5.35344e-10
1.02029e-08
-8.50701e-10
1.36059e-08
-1.24192e-09
1.72236e-08
-1.70714e-09
2.10458e-08
-2.24173e-09
2.50587e-08
-2.83769e-09
2.92438e-08
-3.48295e-09
3.35784e-08
-4.1606e-09
3.80344e-08
-4.84808e-09
4.25781e-08
-5.51615e-09
4.71697e-08
-6.1276e-09
5.17625e-08
-6.63596e-09
5.63015e-08
-6.98422e-09
6.07232e-08
-7.10333e-09
6.4954e-08
-6.91052e-09
6.89084e-08
-6.30719e-09
7.24875e-08
-5.17565e-09
7.55754e-08
-3.37712e-09
7.80357e-08
-7.48089e-10
7.9708e-08
2.90331e-09
8.04018e-08
7.80177e-09
7.98907e-08
1.421e-08
7.79043e-08
2.24347e-08
7.41203e-08
3.28349e-08
6.81556e-08
4.58299e-08
5.95457e-08
6.18469e-08
4.77126e-08
3.21615e-08
8.16096e-08
-2.16334e-11
1.3556e-09
-8.69387e-11
4.13014e-09
-1.98044e-10
7.13248e-09
-3.55817e-10
1.03607e-08
-5.59486e-10
1.38096e-08
-8.06201e-10
1.74703e-08
-1.09052e-09
2.13302e-08
-1.40381e-09
2.5372e-08
-1.73362e-09
2.95736e-08
-2.06298e-09
3.39078e-08
-2.36978e-09
3.83412e-08
-2.6255e-09
4.28338e-08
-2.79385e-09
4.73381e-08
-2.82979e-09
5.17984e-08
-2.67848e-09
5.61502e-08
-2.27376e-09
6.03185e-08
-1.53638e-09
6.42166e-08
-3.71758e-10
6.77438e-08
1.33237e-09
7.07834e-08
3.70842e-09
7.31993e-08
6.91175e-09
7.48324e-08
1.11243e-08
7.54954e-08
1.65585e-08
7.49677e-08
2.34618e-08
7.29874e-08
3.21224e-08
6.92438e-08
4.28752e-08
6.33675e-08
5.61097e-08
5.49211e-08
7.22759e-08
4.33794e-08
9.18677e-08
2.81209e-08
8.42404e-09
1.15605e-07
-1.19597e-11
1.36756e-09
-4.7109e-11
4.16529e-09
-1.05033e-10
7.1904e-09
-1.83796e-10
1.04394e-08
-2.79546e-10
1.39053e-08
-3.86048e-10
1.75768e-08
-4.94141e-10
2.14383e-08
-5.91113e-10
2.54689e-08
-6.59997e-10
2.96425e-08
-6.78777e-10
3.39266e-08
-6.19406e-10
3.82818e-08
-4.46809e-10
4.26612e-08
-1.17858e-10
4.70091e-08
4.19843e-10
5.12607e-08
1.22952e-09
5.53405e-08
2.38695e-09
5.91611e-08
3.98232e-09
6.26212e-08
6.12229e-09
6.56038e-08
8.93244e-09
6.79732e-08
1.256e-08
6.95718e-08
1.71768e-08
7.02156e-08
2.29831e-08
6.96891e-08
3.02116e-08
6.77392e-08
3.91322e-08
6.40668e-08
5.00575e-08
5.83185e-08
6.33497e-08
5.00753e-08
7.94277e-08
3.8843e-08
9.87758e-08
2.40314e-08
1.21934e-07
4.96221e-09
-1.92837e-08
1.49642e-07
-2.92279e-12
1.37048e-09
-9.6828e-12
4.17205e-09
-1.72416e-11
7.19796e-09
-2.07677e-11
1.0443e-08
-1.32143e-11
1.38978e-08
1.51772e-11
1.75484e-08
7.74518e-11
2.1376e-08
1.90599e-10
2.53558e-08
3.76306e-10
2.94568e-08
6.61868e-10
3.3641e-08
1.08121e-09
3.78625e-08
1.67578e-09
4.20666e-08
2.49578e-09
4.61891e-08
3.60154e-09
5.0155e-08
5.06513e-09
5.38769e-08
6.97216e-09
5.72541e-08
9.42373e-09
6.01697e-08
1.25386e-08
6.24889e-08
1.64558e-08
6.4056e-08
2.13375e-08
6.46901e-08
2.7372e-08
6.4181e-08
3.47778e-08
6.22833e-08
4.38074e-08
5.87095e-08
5.47527e-08
5.31215e-08
6.79503e-08
4.51209e-08
8.37884e-08
3.42372e-08
1.02715e-07
1.99168e-08
1.25246e-07
1.50032e-09
1.51961e-07
-2.17528e-08
-5.09466e-08
1.83624e-07
5.42853e-12
1.36506e-09
2.51504e-11
4.15233e-09
6.48966e-11
7.15822e-09
1.3248e-10
1.03754e-08
2.38244e-10
1.3792e-08
3.95591e-10
1.73911e-08
6.21597e-10
2.115e-08
9.37715e-10
2.50397e-08
1.37058e-09
2.9024e-08
1.95289e-09
3.30587e-08
2.72448e-09
3.70909e-08
3.73337e-09
4.10577e-08
5.0371e-09
4.48854e-08
6.70416e-09
4.84879e-08
8.81567e-09
5.17654e-08
1.14673e-08
5.46024e-08
1.47713e-08
5.68657e-08
1.88586e-08
5.84016e-08
2.38819e-08
5.90327e-08
3.00184e-08
5.85537e-08
3.74729e-08
5.67265e-08
4.6482e-08
5.32742e-08
5.73182e-08
4.78734e-08
7.02946e-08
4.01451e-08
8.57711e-08
2.96443e-08
1.04161e-07
1.58473e-08
1.25939e-07
-1.86114e-09
1.5165e-07
-2.42109e-08
1.8191e-07
-5.20129e-08
-8.65491e-08
2.17513e-07
1.31199e-11
1.35194e-09
5.74579e-11
4.10799e-09
1.41499e-10
7.07418e-09
2.76112e-10
1.02408e-08
4.75026e-10
1.35931e-08
7.55397e-10
1.71107e-08
1.13845e-09
2.07669e-08
1.65023e-09
2.45279e-08
2.32243e-09
2.83518e-08
3.19334e-09
3.21878e-08
4.30893e-09
3.59753e-08
5.72404e-09
3.96426e-08
7.50372e-09
4.31057e-08
9.72487e-09
4.62668e-08
1.24779e-08
4.90124e-08
1.58688e-08
5.12116e-08
2.00209e-08
5.27136e-08
2.5078e-08
5.33445e-08
3.12065e-08
5.29042e-08
3.85987e-08
5.11615e-08
4.74762e-08
4.7849e-08
5.80937e-08
4.26567e-08
7.07433e-08
3.52238e-08
8.57592e-08
2.51291e-08
1.03524e-07
1.18796e-08
1.24474e-07
-5.103e-09
1.49108e-07
-2.64952e-08
1.77998e-07
-5.31006e-08
2.11793e-07
-8.58081e-08
-1.26075e-07
2.51319e-07
2.01891e-11
1.33175e-09
8.7384e-11
4.0408e-09
2.12873e-10
6.94869e-09
4.10646e-10
1.0043e-08
6.97906e-10
1.33058e-08
1.09566e-09
1.6713e-08
1.62939e-09
2.02332e-08
2.32988e-09
2.38274e-08
3.23401e-09
2.74476e-08
4.38585e-09
3.1036e-08
5.83772e-09
3.45235e-08
7.65146e-09
3.78289e-08
9.89995e-09
4.08572e-08
1.26687e-08
4.3498e-08
1.60577e-08
4.56234e-08
2.01834e-08
4.70859e-08
2.51808e-08
4.77161e-08
3.12065e-08
4.73188e-08
3.84411e-08
4.56696e-08
4.70923e-08
4.25103e-08
5.73986e-08
3.75427e-08
6.96329e-08
3.04224e-08
8.41067e-08
2.07499e-08
1.01175e-07
8.06068e-09
1.21241e-07
-8.18667e-09
1.44763e-07
-2.86249e-08
1.72261e-07
-5.39933e-08
2.04332e-07
-8.51715e-08
2.41654e-07
-1.23129e-07
-1.69501e-07
2.8508e-07
2.67032e-11
1.30505e-09
1.15188e-10
3.95231e-09
2.79593e-10
6.78429e-09
5.37094e-10
9.78551e-09
9.08444e-10
1.29345e-08
1.4186e-09
1.62028e-08
2.09742e-09
1.95544e-08
2.98054e-09
2.29443e-08
4.11023e-09
2.63179e-08
5.53648e-09
2.96097e-08
7.31817e-09
3.27418e-08
9.52442e-09
3.56226e-08
1.22362e-08
3.81455e-08
1.55479e-08
4.01863e-08
1.95692e-08
4.1602e-08
2.44276e-08
4.22276e-08
3.02701e-08
4.18736e-08
3.72664e-08
4.03225e-08
4.56115e-08
3.73245e-08
5.55291e-08
3.25928e-08
6.72745e-08
2.57973e-08
8.11391e-08
1.65579e-08
9.74536e-08
4.43543e-09
1.16592e-07
-1.1078e-08
1.38978e-07
-3.0572e-08
1.65087e-07
-5.47345e-08
1.95462e-07
-8.43681e-08
2.30717e-07
-1.20427e-07
2.71553e-07
-1.63965e-07
-2.1679e-07
3.18842e-07
3.27572e-11
1.27229e-09
1.4124e-10
3.84383e-09
3.42485e-10
6.58304e-09
6.56916e-10
9.47108e-09
1.10891e-09
1.24825e-08
1.72748e-09
1.55842e-08
2.54698e-09
1.87349e-08
3.60804e-09
2.18832e-08
4.95845e-09
2.49675e-08
6.65434e-09
2.79138e-08
8.76136e-09
3.06347e-08
1.13562e-08
3.30278e-08
1.45281e-08
3.49735e-08
1.83807e-08
3.63337e-08
2.3034e-08
3.69487e-08
2.86264e-08
3.66351e-08
3.53175e-08
3.51825e-08
4.32906e-08
3.23495e-08
5.27555e-08
2.78597e-08
6.39518e-08
2.13964e-08
7.71524e-08
1.25967e-08
9.26667e-08
1.0436e-09
1.10844e-07
-1.37414e-08
1.32075e-07
-3.23096e-08
1.56802e-07
-5.52993e-08
1.8552e-07
-8.34523e-08
2.18784e-07
-1.17632e-07
2.57223e-07
-1.58866e-07
3.0155e-07
-2.08292e-07
-2.67881e-07
3.52641e-07
3.847e-11
1.23382e-09
1.66003e-10
3.7163e-09
4.02584e-10
6.34646e-09
7.71946e-10
9.10171e-09
1.30218e-09
1.19522e-08
2.02643e-09
1.486e-08
2.9837e-09
1.77776e-08
4.21973e-09
2.06472e-08
5.78803e-09
2.33992e-08
7.75104e-09
2.59508e-08
1.01815e-08
2.82043e-08
1.31638e-08
3.00455e-08
1.67959e-08
3.13414e-08
2.1191e-08
3.19386e-08
2.64794e-08
3.16602e-08
3.28114e-08
3.03031e-08
4.03593e-08
2.76346e-08
4.93203e-08
2.33885e-08
5.99195e-08
1.72604e-08
7.2413e-08
8.90292e-09
8.70908e-08
-2.08112e-09
1.04279e-07
-1.6145e-08
1.24345e-07
-3.38071e-08
1.47698e-07
-5.56623e-08
1.74794e-07
-8.23953e-08
2.0614e-07
-1.14799e-07
2.42301e-07
-1.53793e-07
2.83909e-07
-2.00474e-07
3.31686e-07
-2.56068e-07
-3.22673e-07
3.86477e-07
4.39778e-11
1.18984e-09
1.90011e-10
3.57027e-09
4.61082e-10
6.07539e-09
8.84305e-10
8.67849e-09
1.49156e-09
1.1345e-08
2.32026e-09
1.40313e-08
3.41413e-09
1.66837e-08
4.8242e-09
1.92371e-08
6.60988e-09
2.16136e-08
8.84015e-09
2.37206e-08
1.1595e-08
2.54495e-08
1.4967e-08
2.66735e-08
1.90629e-08
2.72455e-08
2.40058e-08
2.69958e-08
2.99371e-08
2.5729e-08
3.70189e-08
2.32214e-08
4.54367e-08
1.92168e-08
5.54021e-08
1.3423e-08
6.71559e-08
5.50668e-09
8.09703e-08
-4.91145e-09
9.71518e-08
-1.82626e-08
1.16044e-07
-3.50372e-08
1.3803e-07
-5.57934e-08
1.63535e-07
-8.11673e-08
1.93027e-07
-1.11886e-07
2.27017e-07
-1.48789e-07
2.6607e-07
-1.92847e-07
3.10813e-07
-2.45217e-07
3.61962e-07
-3.07217e-07
-3.81004e-07
4.20293e-07
4.94285e-11
1.14041e-09
2.13841e-10
3.40586e-09
5.19276e-10
5.76996e-09
9.96298e-10
8.20147e-09
1.68068e-09
1.06606e-08
2.61416e-09
1.30978e-08
3.84538e-09
1.54525e-08
5.43081e-09
1.76517e-08
7.4359e-09
1.96085e-08
9.93642e-09
2.122e-08
1.30199e-08
2.2366e-08
1.67873e-08
2.29061e-08
2.13545e-08
2.26783e-08
2.68548e-08
2.14954e-08
3.3441e-08
1.91428e-08
4.12875e-08
1.53748e-08
5.05934e-08
9.9109e-09
6.1585e-08
2.43142e-09
7.45182e-08
-7.42654e-09
8.96813e-08
-2.00746e-08
1.07398e-07
-3.59789e-08
1.28027e-07
-5.56669e-08
1.51968e-07
-7.97346e-08
1.79657e-07
-1.08856e-07
2.11567e-07
-1.43796e-07
2.48207e-07
-1.85429e-07
2.90128e-07
-2.34768e-07
3.37933e-07
-2.93022e-07
3.92332e-07
-3.61616e-07
-4.42623e-07
4.5395e-07
5.49749e-11
1.08544e-09
2.38091e-10
3.22274e-09
5.78507e-10
5.42954e-09
1.11031e-09
7.66967e-09
1.87326e-09
9.89766e-09
2.91356e-09
1.20575e-08
4.28486e-09
1.40812e-08
6.04923e-09
1.58874e-08
8.2784e-09
1.73793e-08
1.10551e-08
1.84433e-08
1.44747e-08
1.89464e-08
1.86466e-08
1.87342e-08
2.36965e-08
1.76284e-08
2.9768e-08
1.54239e-08
3.70255e-08
1.18854e-08
4.56561e-08
6.74418e-09
5.58728e-08
-3.05729e-10
6.7916e-08
-9.61183e-09
8.20571e-08
-2.15676e-08
9.86004e-08
-3.66179e-08
1.17885e-07
-5.52639e-08
1.40287e-07
-7.80688e-08
1.66217e-07
-1.05664e-07
1.96118e-07
-1.38757e-07
2.30461e-07
-1.7814e-07
2.69742e-07
-2.2471e-07
3.14482e-07
-2.79508e-07
3.65232e-07
-3.43772e-07
4.22685e-07
-4.19069e-07
-5.0714e-07
4.87202e-07
6.07678e-11
1.02467e-09
2.63355e-10
3.02016e-09
6.40107e-10
5.05279e-09
1.22872e-09
7.08105e-09
2.07303e-09
9.05336e-09
3.22383e-09
1.09067e-08
4.7399e-09
1.25651e-08
6.68908e-09
1.39382e-08
9.14957e-09
1.49188e-08
1.22113e-08
1.53815e-08
1.59776e-08
1.51801e-08
2.05668e-08
1.41451e-08
2.61142e-08
1.2081e-08
3.27744e-08
8.76368e-09
4.07235e-08
3.93626e-09
5.01614e-08
-2.69379e-09
6.13145e-08
-1.14588e-08
7.44378e-08
-2.27351e-08
8.98179e-08
-3.69477e-08
1.07775e-07
-5.45746e-08
1.28662e-07
-7.61516e-08
1.5287e-07
-1.02276e-07
1.80816e-07
-1.33611e-07
2.1295e-07
-1.7089e-07
2.49732e-07
-2.14922e-07
2.91631e-07
-2.66608e-07
3.3911e-07
-3.26986e-07
3.92629e-07
-3.97291e-07
4.52846e-07
-4.79287e-07
-5.73962e-07
5.19669e-07
6.69507e-11
9.57723e-10
2.90195e-10
2.79691e-09
7.0534e-10
4.63765e-09
1.35378e-09
6.43261e-09
2.28351e-09
8.12363e-09
3.55004e-09
9.64017e-09
5.21742e-09
1.08978e-08
7.35943e-09
1.17962e-08
1.00609e-08
1.22173e-08
1.34191e-08
1.20233e-08
1.75456e-08
1.10536e-08
2.25677e-08
9.12297e-09
2.86308e-08
6.01797e-09
3.59004e-08
1.49409e-09
4.45643e-08
-4.72768e-09
5.48351e-08
-1.29646e-08
6.69526e-08
-2.35763e-08
8.11863e-08
-3.69687e-08
9.78371e-08
-5.35985e-08
1.17239e-07
-7.39768e-08
1.3976e-07
-9.86725e-08
1.65799e-07
-1.28315e-07
1.95783e-07
-1.63595e-07
2.30158e-07
-2.05265e-07
2.69373e-07
-2.54137e-07
3.13853e-07
-3.11089e-07
3.63977e-07
-3.7711e-07
4.20031e-07
-4.53345e-07
4.82557e-07
-5.41812e-07
-6.42211e-07
5.50805e-07
7.36544e-11
8.8407e-10
3.19126e-10
2.55144e-09
7.75361e-10
4.18141e-09
1.48754e-09
5.72044e-09
2.50792e-09
7.10325e-09
3.89683e-09
8.25125e-09
5.72374e-09
9.07085e-09
8.06851e-09
9.4514e-09
1.10227e-08
9.26313e-09
1.46912e-08
8.35479e-09
1.91938e-08
6.55107e-09
2.4667e-08
3.64973e-09
3.12664e-08
-5.81409e-10
3.91682e-08
-6.40775e-09
4.8572e-08
-1.41315e-08
5.9703e-08
-2.40955e-08
7.28139e-08
-3.66873e-08
8.81879e-08
-5.23427e-08
1.06139e-07
-7.15497e-08
1.27014e-07
-9.48518e-08
1.51191e-07
-1.2285e-07
1.79078e-07
-1.56202e-07
2.11105e-07
-1.95622e-07
2.47715e-07
-2.41875e-07
2.8934e-07
-2.95762e-07
3.36366e-07
-3.58115e-07
3.89072e-07
-4.29816e-07
4.47467e-07
-5.11739e-07
5.11591e-07
-6.05936e-07
-7.10405e-07
5.79785e-07
8.09933e-11
8.03077e-10
3.50596e-10
2.28184e-09
8.51172e-10
3.68084e-09
1.63177e-09
4.93984e-09
2.74903e-09
5.98599e-09
4.26819e-09
6.73209e-09
6.26427e-09
7.07478e-09
8.82329e-09
6.89237e-09
1.20437e-08
6.04268e-09
1.60381e-08
4.36044e-09
2.09346e-08
1.65457e-09
2.6879e-08
-2.29473e-09
3.40368e-08
-7.73922e-09
4.25951e-08
-1.4966e-08
5.27649e-08
-2.43013e-08
6.47834e-08
-3.61141e-08
7.89159e-08
-5.08198e-08
9.54575e-08
-6.88842e-08
1.14734e-07
-9.0826e-08
1.37101e-07
-1.17219e-07
1.62946e-07
-1.48695e-07
1.9268e-07
-1.85936e-07
2.26734e-07
-2.29676e-07
2.65545e-07
-2.80686e-07
3.09537e-07
-3.39754e-07
3.59079e-07
-4.07657e-07
4.14408e-07
-4.85145e-07
4.75343e-07
-5.72674e-07
5.40832e-07
-6.71426e-07
-7.74809e-07
6.05236e-07
8.90593e-11
7.14018e-10
3.84967e-10
1.98593e-09
9.33589e-10
3.13222e-09
1.78793e-09
4.0855e-09
3.00909e-09
4.76483e-09
4.66734e-09
5.07385e-09
6.84332e-09
4.8988e-09
9.62933e-09
4.10636e-09
1.31308e-08
2.54119e-09
1.7468e-08
2.3293e-11
2.27774e-08
-3.65486e-09
2.92141e-08
-8.73138e-09
3.69532e-08
-1.54784e-08
4.61926e-08
-2.42053e-08
5.71542e-08
-3.52629e-08
7.00865e-08
-4.90464e-08
8.52658e-08
-6.59991e-08
1.02997e-07
-8.66159e-08
1.23616e-07
-1.11445e-07
1.47485e-07
-1.41088e-07
1.74994e-07
-1.76203e-07
2.06552e-07
-2.17494e-07
2.42586e-07
-2.6571e-07
2.83524e-07
-3.21623e-07
3.29785e-07
-3.86015e-07
3.81764e-07
-4.59636e-07
4.39795e-07
-5.43175e-07
5.04152e-07
-6.37032e-07
5.7498e-07
-7.42254e-07
-8.57011e-07
6.57182e-07
9.79276e-11
6.16091e-10
4.22526e-10
1.66134e-09
1.02324e-09
2.5315e-09
1.95712e-09
3.15162e-09
3.2898e-09
3.43215e-09
5.09667e-09
3.26697e-09
7.46406e-09
2.53141e-09
1.04906e-08
1.07982e-09
1.42887e-08
-1.25692e-09
1.89862e-08
-4.67422e-09
2.47281e-08
-9.39671e-09
3.16783e-08
-1.56816e-08
4.00217e-08
-2.38218e-08
4.9966e-08
-3.41497e-08
6.17435e-08
-4.70405e-08
7.56128e-08
-6.29156e-08
9.18594e-08
-8.22458e-08
1.10797e-07
-1.05553e-07
1.32765e-07
-1.33413e-07
1.58131e-07
-1.66454e-07
1.87279e-07
-2.05352e-07
2.20613e-07
-2.50828e-07
2.5854e-07
-3.03637e-07
3.01464e-07
-3.64548e-07
3.49774e-07
-4.34325e-07
4.03829e-07
-5.13692e-07
4.6394e-07
-6.03285e-07
5.30438e-07
-7.03531e-07
6.03522e-07
-8.15338e-07
-9.36551e-07
6.83063e-07
1.07643e-10
5.08448e-10
4.63451e-10
1.30553e-09
1.12053e-09
1.87443e-09
2.14002e-09
2.13213e-09
3.59221e-09
1.97996e-09
5.55763e-09
1.30156e-09
8.12833e-09
-3.92922e-11
1.14093e-08
-2.20112e-09
1.55198e-08
-5.36746e-09
2.05953e-08
-9.74974e-09
2.6789e-08
-1.55904e-08
3.42736e-08
-2.31661e-08
4.32429e-08
-3.27912e-08
5.39142e-08
-4.48209e-08
6.65288e-08
-5.9655e-08
8.13537e-08
-7.77405e-08
9.86819e-08
-9.9574e-08
1.18832e-07
-1.25703e-07
1.42146e-07
-1.56728e-07
1.68987e-07
-1.93295e-07
1.99732e-07
-2.36097e-07
2.34766e-07
-2.85861e-07
2.74466e-07
-3.43337e-07
3.19194e-07
-4.09276e-07
3.69275e-07
-4.84406e-07
4.24971e-07
-5.69388e-07
4.86456e-07
-6.6477e-07
5.53813e-07
-7.70888e-07
6.26735e-07
-8.8826e-07
-1.014e-06
7.04186e-07
1.1823e-10
3.90219e-10
5.07833e-10
9.15927e-10
1.22564e-09
1.15662e-09
2.33697e-09
1.02079e-09
3.91678e-09
4.00153e-10
6.05076e-09
-8.32426e-10
8.83669e-09
-2.82523e-09
1.23858e-08
-5.75024e-09
1.68243e-08
-9.806e-09
2.22951e-08
-1.52205e-08
2.89592e-08
-2.22545e-08
3.69975e-08
-3.12044e-08
4.66125e-08
-4.24062e-08
5.80296e-08
-5.6238e-08
7.1498e-08
-7.31234e-08
8.72914e-08
-9.35339e-08
1.05708e-07
-1.1799e-07
1.27067e-07
-1.47063e-07
1.5171e-07
-1.8137e-07
1.7999e-07
-2.21575e-07
2.12269e-07
-2.68376e-07
2.48903e-07
-3.22495e-07
2.90231e-07
-3.84665e-07
3.36556e-07
-4.55601e-07
3.88114e-07
-5.35965e-07
4.45047e-07
-6.2632e-07
5.0737e-07
-7.27093e-07
5.74915e-07
-8.38433e-07
6.47071e-07
-9.60416e-07
-1.08967e-06
7.22741e-07
1.29691e-10
2.60528e-10
5.55674e-10
4.89944e-10
1.33856e-09
3.73739e-10
2.5479e-09
-1.88554e-10
4.26332e-09
-1.31527e-09
6.57569e-09
-3.14479e-09
9.58846e-09
-5.838e-09
1.34191e-08
-9.58087e-09
1.82005e-08
-1.45874e-08
2.40826e-08
-2.11026e-08
3.1234e-08
-2.94059e-08
3.98433e-08
-3.98137e-08
5.01206e-08
-5.26834e-08
6.22983e-08
-6.84157e-08
7.66319e-08
-8.7457e-08
9.33997e-08
-1.10302e-07
1.12901e-07
-1.37492e-07
1.35456e-07
-1.69617e-07
1.61396e-07
-2.07311e-07
1.91062e-07
-2.51241e-07
2.24792e-07
-3.02105e-07
2.62907e-07
-3.6061e-07
3.05696e-07
-4.27454e-07
3.53389e-07
-5.03294e-07
4.06124e-07
-5.887e-07
4.63924e-07
-6.8412e-07
5.26656e-07
-7.89825e-07
5.93955e-07
-9.05733e-07
6.65074e-07
-1.03153e-06
-1.16357e-06
7.38968e-07
1.42008e-10
1.18521e-10
6.06892e-10
2.50599e-11
1.45909e-09
-4.78462e-10
2.77241e-09
-1.50187e-09
4.63113e-09
-3.17399e-09
7.13127e-09
-5.64493e-09
1.03819e-08
-9.08861e-09
1.45064e-08
-1.37054e-08
1.96443e-08
-1.97253e-08
2.59523e-08
-2.74106e-08
3.36058e-08
-3.70593e-08
4.28003e-08
-4.90083e-08
5.37525e-08
-6.36356e-08
6.67005e-08
-8.13637e-08
8.19043e-08
-1.02661e-07
9.96441e-08
-1.28042e-07
1.20219e-07
-1.58067e-07
1.43942e-07
-1.9334e-07
1.71133e-07
-2.34502e-07
2.02115e-07
-2.82222e-07
2.37193e-07
-3.37184e-07
2.76648e-07
-4.00065e-07
3.2071e-07
-4.71515e-07
3.69524e-07
-5.52108e-07
4.23134e-07
-6.4231e-07
4.81449e-07
-7.42435e-07
5.44196e-07
-8.52572e-07
6.1087e-07
-9.72407e-07
6.8066e-07
-1.10132e-06
-1.23551e-06
7.52601e-07
1.55144e-10
-3.66226e-11
6.61331e-10
-4.81127e-10
1.58686e-09
-1.40399e-09
3.00977e-09
-2.92478e-09
5.01899e-09
-5.18321e-09
7.7156e-09
-8.34154e-09
1.12141e-08
-1.25871e-08
1.56438e-08
-1.81351e-08
2.11501e-08
-2.52317e-08
2.78962e-08
-3.41566e-08
3.60636e-08
-4.52268e-08
4.58539e-08
-5.87986e-08
5.74891e-08
-7.52707e-08
7.12114e-08
-9.5086e-08
8.72829e-08
-1.18732e-07
1.05984e-07
-1.46742e-07
1.27608e-07
-1.79691e-07
1.52458e-07
-2.18191e-07
1.80841e-07
-2.62884e-07
2.13049e-07
-3.14431e-07
2.49355e-07
-3.7349e-07
2.8999e-07
-4.407e-07
3.35112e-07
-5.16637e-07
3.84785e-07
-6.01782e-07
4.38961e-07
-6.96485e-07
4.97436e-07
-8.0091e-07
5.59812e-07
-9.14948e-07
6.25492e-07
-1.03809e-06
6.93625e-07
-1.16946e-06
-1.30521e-06
7.63325e-07
1.69046e-10
-2.05668e-10
7.18778e-10
-1.03086e-09
1.72135e-09
-2.40656e-09
3.25901e-09
-4.46244e-09
5.42528e-09
-7.34947e-09
8.32614e-09
-1.12424e-08
1.20814e-08
-1.63423e-08
1.68258e-08
-2.28795e-08
2.27105e-08
-3.11164e-08
2.99042e-08
-4.13503e-08
3.85941e-08
-5.39167e-08
4.89866e-08
-6.91911e-08
6.13075e-08
-8.75916e-08
7.58014e-08
-1.0958e-07
9.27303e-08
-1.35661e-07
1.12371e-07
-1.66383e-07
1.35009e-07
-2.02329e-07
1.60934e-07
-2.44116e-07
1.9043e-07
-2.9238e-07
2.2376e-07
-3.47761e-07
2.61155e-07
-4.10885e-07
3.02786e-07
-4.8233e-07
3.48738e-07
-5.6259e-07
3.98998e-07
-6.52042e-07
4.53422e-07
-7.50909e-07
5.11695e-07
-8.59184e-07
5.73322e-07
-9.76575e-07
6.37639e-07
-1.1024e-06
7.0377e-07
-1.23559e-06
-1.37234e-06
7.70902e-07
1.83651e-10
-3.8932e-10
7.78959e-10
-1.62617e-09
1.86191e-09
-3.48952e-09
3.51892e-09
-6.11945e-09
5.84795e-09
-9.67851e-09
8.95976e-09
-1.43542e-08
1.29791e-08
-2.03616e-08
1.80459e-08
-2.79463e-08
2.43164e-08
-3.73869e-08
3.19644e-08
-4.89983e-08
4.11815e-08
-6.31338e-08
5.21777e-08
-8.01874e-08
6.51813e-08
-1.00595e-07
8.04371e-08
-1.24836e-07
9.82045e-08
-1.53429e-07
1.18753e-07
-1.86932e-07
1.42359e-07
-2.25934e-07
1.69292e-07
-2.71049e-07
1.99809e-07
-3.22897e-07
2.34139e-07
-3.82091e-07
2.72463e-07
-4.49209e-07
3.14887e-07
-5.24754e-07
3.61428e-07
-6.09131e-07
4.11991e-07
-7.02605e-07
4.66333e-07
-8.05251e-07
5.24045e-07
-9.16895e-07
5.84557e-07
-1.03709e-06
6.47149e-07
-1.165e-06
7.10943e-07
-1.29938e-06
-1.43659e-06
7.75187e-07
1.98885e-10
-5.88205e-10
8.41561e-10
-2.26884e-09
2.0078e-09
-4.65576e-09
3.78807e-09
-7.89972e-09
6.28466e-09