/*--------------------------------*- C++ -*----------------------------------*\
| =========                 |                                                 |
| \\      /  F ield         | foam-extend: Open Source CFD                    |
|  \\    /   O peration     | Version:     4.0                                |
|   \\  /    A nd           | Web:         http://www.foam-extend.org         |
|    \\/     M anipulation  |                                                 |
\*---------------------------------------------------------------------------*/
FoamFile
{
    version     2.0;
    format      ascii;
    class       volVectorField;
    location    "95";
    object      U;
}
// * * * * * * * * * * * * * * * * * * * * * * * * * * * * * * * * * * * * * //

dimensions      [0 1 -1 0 0 0 0];

internalField   nonuniform List<vector> 
36000
(
(-2.20683e-07 1.04901e-06 -2.48396e-25)
(-2.22064e-06 2.99604e-06 2.56468e-25)
(-6.40626e-06 4.85283e-06 0)
(-1.2834e-05 6.61402e-06 0)
(-2.15222e-05 8.27492e-06 -2.21602e-25)
(-3.25026e-05 9.83096e-06 -2.09966e-25)
(-4.58072e-05 1.1278e-05 0)
(-6.14532e-05 1.26124e-05 0)
(-7.94398e-05 1.38316e-05 0)
(-9.97485e-05 1.49335e-05 0)
(-0.000122343 1.59168e-05 0)
(-0.000147172 1.67811e-05 -2.92294e-25)
(-0.000174162 1.75267e-05 -3.80793e-28)
(-0.000203226 1.81549e-05 -2.55393e-25)
(-0.000234261 1.86675e-05 2.3836e-25)
(-0.000267145 1.90669e-05 -2.21731e-25)
(-0.000301745 1.93563e-05 4.13015e-25)
(-0.00033791 1.95394e-05 -1.91894e-25)
(-0.000375482 1.96201e-05 1.77872e-25)
(-0.000414285 1.96024e-05 4.94892e-25)
(-0.000454137 1.94902e-05 8.7738e-29)
(-0.000494843 1.92869e-05 5.64519e-25)
(-0.000536196 1.89952e-05 -1.30216e-25)
(-0.000577978 1.86163e-05 -2.40118e-25)
(-0.000619953 1.81502e-05 -2.21234e-25)
(-0.000661868 1.75951e-05 0)
(-0.000703447 1.69471e-05 0)
(-0.000744386 1.61987e-05 0)
(-0.000784328 1.5333e-05 1.56566e-25)
(-0.000822794 1.43172e-05 -2.86643e-25)
(-3.27129e-07 3.12036e-06 0)
(-2.50666e-06 8.91397e-06 0)
(-6.83819e-06 1.44413e-05 0)
(-1.33773e-05 1.96865e-05 9.35628e-25)
(-2.21418e-05 2.46356e-05 -2.19768e-25)
(-3.31627e-05 2.92749e-05 2.09954e-25)
(-4.64712e-05 3.35923e-05 0)
(-6.20836e-05 3.75771e-05 0)
(-7.99982e-05 4.12212e-05 -7.07217e-25)
(-0.000100196 4.45186e-05 6.63332e-25)
(-0.000122639 4.74654e-05 -6.24193e-25)
(-0.000147275 5.00605e-05 5.83729e-25)
(-0.00017403 5.23046e-05 2.73318e-25)
(-0.000202815 5.42012e-05 2.55306e-25)
(-0.000233526 5.57557e-05 4.76239e-25)
(-0.000266038 5.69753e-05 0)
(-0.000300216 5.78694e-05 -1.23963e-24)
(-0.000335907 5.84487e-05 -8.27264e-28)
(-0.000372949 5.87248e-05 1.42435e-24)
(-0.000411163 5.87093e-05 -9.89584e-25)
(-0.000450361 5.84138e-05 -6.11159e-25)
(-0.000490343 5.78482e-05 5.65147e-25)
(-0.000530897 5.70204e-05 -5.21123e-25)
(-0.000571796 5.59343e-05 9.61646e-25)
(-0.000612797 5.45894e-05 -6.62755e-30)
(-0.000653635 5.29802e-05 8.13751e-25)
(-0.000694025 5.10952e-05 -1.12172e-24)
(-0.000733657 4.89118e-05 0)
(-0.000772162 4.63808e-05 0)
(-0.00080886 4.34114e-05 0)
(-5.37155e-07 5.14775e-06 9.96945e-25)
(-3.07115e-06 1.47089e-05 4.00475e-27)
(-7.69073e-06 2.38345e-05 -1.47413e-24)
(-1.44497e-05 3.24977e-05 1.87485e-24)
(-2.33649e-05 4.06754e-05 -2.21754e-24)
(-3.44659e-05 4.83446e-05 -1.68591e-24)
(-4.7782e-05 5.54846e-05 3.18298e-24)
(-6.33278e-05 6.20777e-05 -1.49978e-24)
(-8.10997e-05 6.81099e-05 0)
(-0.000101077 7.35707e-05 0)
(-0.00012322 7.84537e-05 0)
(-0.000147474 8.2756e-05 0)
(-0.000173762 8.64789e-05 1.09603e-24)
(-0.000201995 8.96273e-05 -2.55727e-24)
(-0.000232061 9.22098e-05 1.90903e-24)
(-0.000263835 9.42382e-05 0)
(-0.000297176 9.57275e-05 8.27606e-25)
(-0.000331926 9.66949e-05 -7.68015e-25)
(-0.000367914 9.71593e-05 0)
(-0.000404957 9.71398e-05 0)
(-0.000442857 9.66549e-05 3.05829e-24)
(-0.000481403 9.5721e-05 -1.69496e-24)
(-0.000520369 9.43507e-05 0)
(-0.000559515 9.25503e-05 4.51998e-28)
(-0.000598581 9.03189e-05 -8.86076e-25)
(-0.000637284 8.76471e-05 -8.16576e-25)
(-0.000675318 8.45156e-05 7.46899e-25)
(-0.000712357 8.08868e-05 6.8702e-25)
(-0.00074802 7.66842e-05 0)
(-0.000781212 7.17822e-05 1.72295e-24)
(-8.45428e-07 7.10325e-06 0)
(-3.89999e-06 2.03027e-05 0)
(-8.94289e-06 3.29077e-05 4.92546e-25)
(-1.60251e-05 4.48809e-05 -1.8802e-24)
(-2.51621e-05 5.61891e-05 3.56334e-24)
(-3.63808e-05 6.68e-05 -2.53053e-24)
(-4.97079e-05 7.6684e-05 0)
(-6.5155e-05 8.58157e-05 0)
(-8.2716e-05 9.41748e-05 -2.12995e-24)
(-0.000102367 0.000101746 2.66644e-24)
(-0.000124066 0.000108519 -1.25005e-24)
(-0.000147754 0.00011449 -1.17439e-24)
(-0.000173353 0.000119658 2.19632e-24)
(-0.000200765 0.00012403 -2.04832e-24)
(-0.000229877 0.000127617 -9.55291e-25)
(-0.000260557 0.000130435 0)
(-0.000292656 0.000132503 -3.31729e-24)
(-0.000326009 0.000133845 -2.66809e-27)
(-0.000360437 0.000134486 2.85902e-24)
(-0.000395743 0.000134452 2.034e-27)
(-0.000431716 0.000133767 1.3263e-27)
(-0.000468131 0.000132455 4.12296e-28)
(-0.000504743 0.000130531 -1.0451e-24)
(-0.000541291 0.000128004 1.92959e-24)
(-0.000577491 0.000124874 0)
(-0.000613032 0.000121126 -7.12367e-28)
(-0.000647579 0.000116734 2.99809e-24)
(-0.000680786 0.000111644 -1.37602e-24)
(-0.00071226 0.000105757 -3.78188e-24)
(-0.000740276 9.89472e-05 -3.45242e-24)
(-1.24421e-06 8.96087e-06 1.50637e-24)
(-4.97271e-06 2.56222e-05 -3.11439e-24)
(-1.05641e-05 4.15445e-05 1.97744e-24)
(-1.80655e-05 5.66794e-05 1.88724e-24)
(-2.749e-05 7.09837e-05 -1.78544e-24)
(-3.88613e-05 8.4415e-05 8.45374e-25)
(-5.22021e-05 9.69344e-05 -2.40395e-24)
(-6.75201e-05 0.000108508 6.04134e-24)
(-8.48055e-05 0.00011911 -7.05998e-25)
(-0.00010403 0.000128717 1.33969e-24)
(-0.000125149 0.000137316 -1.25723e-24)
(-0.000148097 0.0001449 1.17431e-24)
(-0.00017279 0.000151467 0)
(-0.000199128 0.000157023 0)
(-0.000226988 0.000161581 3.83845e-24)
(-0.000256232 0.00016516 -1.78452e-24)
(-0.000286701 0.000167784 1.65909e-24)
(-0.000318221 0.00016948 1.54127e-24)
(-0.000350599 0.00017028 -2.86356e-24)
(-0.000383624 0.000170215 -3.98025e-24)
(-0.000417068 0.000169316 1.22723e-24)
(-0.000450684 0.000167611 4.54202e-24)
(-0.000484207 0.000165119 -2.09473e-24)
(-0.000517346 0.00016185 4.66787e-27)
(-0.000549789 0.000157804 1.78117e-24)
(-0.000581188 0.000152963 -1.63815e-24)
(-0.000611173 0.000147292 -1.50171e-24)
(-0.00063937 0.000140722 2.18224e-27)
(-0.0006654 0.000133125 1.25669e-24)
(-0.000686638 0.000124435 2.30304e-24)
(-1.72367e-06 1.06972e-05 4.53606e-24)
(-6.26318e-06 3.06015e-05 -1.04169e-24)
(-1.25152e-05 4.96393e-05 0)
(-2.05219e-05 6.77511e-05 -9.49173e-25)
(-3.02932e-05 8.48829e-05 -4.49805e-24)
(-4.18483e-05 0.000100982 5.10227e-24)
(-5.52045e-05 0.000116 2.41683e-24)
(-7.03647e-05 0.000129894 -1.50898e-24)
(-8.73136e-05 0.00014263 1.43349e-24)
(-0.000106018 0.000154179 -6.70749e-24)
(-0.000126428 0.000164521 3.77333e-24)
(-0.000148471 0.000173647 -1.17944e-24)
(-0.000172059 0.000181551 4.41444e-24)
(-0.000197082 0.000188239 -2.06012e-24)
(-0.00022341 0.000193725 -5.77042e-24)
(-0.000250895 0.000198028 3.58176e-24)
(-0.000279368 0.000201175 -3.33147e-24)
(-0.00030864 0.000203199 -3.29983e-27)
(-0.000338504 0.000204135 -1.44208e-24)
(-0.000368732 0.000204019 -1.3326e-24)
(-0.000399074 0.000202887 4.92322e-24)
(-0.000429261 0.000200769 -4.54716e-24)
(-0.000458998 0.000197689 0)
(-0.000487963 0.000193659 -1.93725e-24)
(-0.000515807 0.000188676 -1.78176e-24)
(-0.000542142 0.000182721 -3.28823e-24)
(-0.000566555 0.000175752 3.01811e-24)
(-0.000588636 0.000167681 0)
(-0.000608055 0.000158347 6.3279e-24)
(-0.000621049 0.000147798 -1.15823e-24)
(-2.27221e-06 1.22921e-05 0)
(-7.74057e-06 3.51832e-05 0)
(-1.475e-05 5.70997e-05 0)
(-2.33365e-05 7.79706e-05 -5.52913e-27)
(-3.35057e-05 9.7731e-05 6.32742e-24)
(-4.5271e-05 0.000116317 -5.11954e-24)
(-5.86431e-05 0.000133671 3.23402e-24)
(-7.36182e-05 0.000149739 -6.09015e-24)
(-9.01746e-05 0.000164478 -1.43768e-24)
(-0.000108273 0.000177854 -2.69786e-24)
(-0.000127854 0.00018984 2.5266e-24)
(-0.000148842 0.000200419 1.18858e-24)
(-0.000171137 0.000209585 6.51528e-27)
(-0.000194622 0.00021734 0)
(-0.000219157 0.000223698 -7.30848e-27)
(-0.000244582 0.000228678 1.79535e-24)
(-0.000270715 0.00023231 -1.66651e-24)
(-0.000297352 0.000234627 1.54986e-24)
(-0.000324269 0.000235669 5.76078e-24)
(-0.000351217 0.000235475 -3.96765e-27)
(-0.000377923 0.000234085 -2.47235e-24)
(-0.000404089 0.000231532 -2.2782e-24)
(-0.00042939 0.00022784 -3.6803e-27)
(-0.000453468 0.000223025 -1.9517e-24)
(-0.000475932 0.000217082 -3.58353e-24)
(-0.000496349 0.000209988 4.93702e-24)
(-0.000514257 0.000201697 -1.50623e-24)
(-0.0005292 0.000192105 -2.77118e-24)
(-0.000540958 0.000181024 -5.07272e-24)
(-0.000544372 0.000168622 2.32339e-24)
(-2.87692e-06 1.37289e-05 -4.08699e-24)
(-9.37046e-06 3.93197e-05 0)
(-1.72168e-05 6.38484e-05 -4.03534e-24)
(-2.64443e-05 8.72323e-05 4.7798e-24)
(-3.70531e-05 0.000109395 -5.44774e-24)
(-4.90492e-05 0.000130263 6.87592e-24)
(-6.24354e-05 0.000149764 -6.49534e-24)
(-7.71996e-05 0.000167838 1.52109e-24)
(-9.33119e-05 0.00018443 2.87198e-24)
(-0.000110725 0.000199498 -5.03328e-27)
(-0.000129371 0.000213008 -5.08557e-24)
(-0.000149164 0.000224938 4.76211e-24)
(-0.000169997 0.000235275 -4.44501e-24)
(-0.000191739 0.00024402 -8.3107e-24)
(-0.000214241 0.000251182 5.80613e-24)
(-0.000237329 0.000256782 1.80055e-24)
(-0.000260805 0.000260848 -5.03658e-24)
(-0.00028445 0.000263416 -3.12226e-24)
(-0.000308019 0.000264527 -2.88522e-24)
(-0.00033124 0.000264224 8.03391e-24)
(-0.000353815 0.000262545 -2.48578e-24)
(-0.000375415 0.000259529 3.9739e-27)
(-0.00039568 0.000255199 -4.23814e-24)
(-0.000414215 0.000249571 7.79597e-24)
(-0.000430585 0.00024264 3.58371e-24)
(-0.000444306 0.00023438 -3.29621e-24)
(-0.000454865 0.000224739 6.58026e-27)
(-0.000461745 0.000213603 2.78439e-24)
(-0.000464945 0.000200806 5.08736e-24)
(-0.000457501 0.000186507 -6.98197e-24)
(-3.52403e-06 1.49948e-05 4.12316e-24)
(-1.1116e-05 4.29739e-05 -5.32654e-24)
(-1.98599e-05 6.98244e-05 -4.06324e-24)
(-2.9775e-05 9.5452e-05 3.85158e-24)
(-4.08546e-05 0.000119769 3.65986e-24)
(-5.30958e-05 0.000142689 -1.72024e-24)
(-6.64914e-05 0.00016413 0)
(-8.10193e-05 0.00018402 0)
(-9.66402e-05 0.000202295 1.44515e-24)
(-0.000113296 0.000218903 2.71547e-24)
(-0.00013091 0.000233802 7.65731e-24)
(-0.000149384 0.000246962 -4.77898e-24)
(-0.000168599 0.000258365 -1.09629e-26)
(-0.000188415 0.000268007 4.17633e-24)
(-0.000208666 0.000275895 -1.94701e-24)
(-0.000229163 0.000282045 -3.62179e-24)
(-0.000249695 0.000286486 1.01084e-23)
(-0.000270021 0.000289255 3.1241e-24)
(-0.000289875 0.00029039 6.71255e-27)
(-0.000308961 0.000289937 5.43572e-27)
(-0.000326952 0.000287935 -4.07956e-27)
(-0.000343488 0.000284423 2.29816e-24)
(-0.000358173 0.000279425 6.36408e-24)
(-0.000370571 0.000272956 1.36206e-26)
(-0.000380203 0.000265008 3.60116e-24)
(-0.000386529 0.00025555 -9.94447e-24)
(-0.000388988 0.00024453 -6.08491e-24)
(-0.000386972 0.000231838 2.99366e-27)
(-0.000380927 0.000217308 2.56139e-24)
(-0.000361367 0.00020113 4.65185e-24)
(-4.19936e-06 1.60811e-05 -3.11394e-24)
(-1.2939e-05 4.61197e-05 5.36098e-24)
(-2.26214e-05 7.49838e-05 -2.05296e-24)
(-3.32553e-05 0.000102568 5.83761e-24)
(-4.48253e-05 0.000128771 -3.67811e-24)
(-5.73181e-05 0.000153497 -1.73556e-24)
(-7.07146e-05 0.000176651 -6.58168e-24)
(-8.49811e-05 0.00019815 6.19299e-24)
(-0.000100066 0.00021792 -2.92477e-24)
(-0.0001159 0.000235898 0)
(-0.000132394 0.000252034 -5.13784e-24)
(-0.000149437 0.000266288 4.80477e-24)
(-0.000166897 0.000278638 -2.25459e-24)
(-0.000184619 0.000289071 4.19298e-24)
(-0.000202423 0.000297591 1.95048e-24)
(-0.000220104 0.000304212 0)
(-0.000237431 0.000308959 1.51524e-26)
(-0.000254142 0.000311867 0)
(-0.000269949 0.000312975 1.21024e-26)
(-0.00028453 0.000312325 5.40265e-24)
(-0.000297527 0.000309961 5.00296e-24)
(-0.000308549 0.000305916 2.30687e-24)
(-0.000317163 0.000300218 -1.27664e-23)
(-0.000322892 0.000292875 7.19675e-27)
(-0.000325211 0.000283881 0)
(-0.00032353 0.000273204 6.64962e-24)
(-0.000317234 0.000260782 -3.92879e-27)
(-0.000305572 0.000246526 8.41962e-24)
(-0.000289749 0.000230231 0)
(-0.000256979 0.000212186 -4.66805e-24)
(-4.8888e-06 1.69832e-05 1.06116e-24)
(-1.48012e-05 4.87421e-05 2.17541e-24)
(-2.54431e-05 7.93001e-05 4.12279e-24)
(-3.68108e-05 0.00010854 -1.17496e-23)
(-4.88787e-05 0.00013635 5.55021e-24)
(-6.1621e-05 0.00016262 -5.25972e-24)
(-7.5005e-05 0.000187246 1.32428e-23)
(-8.89832e-05 0.000210131 -6.23468e-24)
(-0.00010349 0.000231192 5.86851e-24)
(-0.000118443 0.000250355 0)
(-0.000133738 0.000267559 0)
(-0.00014925 0.000282758 7.26072e-24)
(-0.000164831 0.000295919 3.19548e-27)
(-0.000180311 0.000307025 -4.21524e-24)
(-0.000195492 0.000316072 9.33756e-27)
(-0.000210152 0.000323071 -9.98055e-27)
(-0.000224039 0.000328044 -6.79156e-24)
(-0.000236871 0.00033102 3.15525e-24)
(-0.000248331 0.000332039 -2.91974e-24)
(-0.000258072 0.000331142 2.71531e-24)
(-0.000265707 0.000328368 -1.00155e-23)
(-0.000270811 0.000323751 -9.27142e-24)
(-0.000272915 0.000317319 4.28284e-24)
(-0.000271505 0.000309079 7.88766e-24)
(-0.00026601 0.000299016 -3.63418e-24)
(-0.000255785 0.000287093 -3.33097e-24)
(-0.000240157 0.000273242 0)
(-0.00021814 0.000257415 -5.61627e-24)
(-0.000192128 0.000239247 0)
(-0.000145455 0.000219751 7.02305e-24)
(-5.5787e-06 1.77001e-05 -2.10378e-24)
(-1.66655e-05 5.08367e-05 6.57059e-24)
(-2.82677e-05 8.27632e-05 -8.28978e-24)
(-4.03678e-05 0.000113351 -1.62066e-26)
(-5.29281e-05 0.000142478 3.73828e-24)
(-6.59083e-05 0.000170021 -8.83213e-24)
(-7.92601e-05 0.000195865 6.66554e-24)
(-9.29202e-05 0.000219902 0)
(-0.000106808 0.000242037 2.96573e-24)
(-0.000120823 0.000262186 -8.32453e-24)
(-0.000134846 0.000280277 0)
(-0.000148735 0.000296255 -9.72777e-24)
(-0.000162326 0.000310079 4.54274e-24)
(-0.00017543 0.000321724 -4.25155e-24)
(-0.000187832 0.000331182 -3.92987e-24)
(-0.000199288 0.000338455 7.34179e-24)
(-0.000209525 0.000343561 0)
(-0.000218235 0.000346527 3.1777e-24)
(-0.000225079 0.000347388 5.87768e-24)
(-0.00022968 0.000346182 -1.08962e-23)
(-0.000231621 0.000342951 5.0328e-24)
(-0.000230449 0.000337726 -4.65837e-24)
(-0.000225657 0.000330528 -4.28977e-24)
(-0.000216686 0.000321361 -3.9554e-24)
(-0.000202925 0.000310208 -7.1541e-27)
(-0.000183681 0.000297027 0)
(-0.000158236 0.000281743 -6.16052e-24)
(-0.000125281 0.000264377 0)
(-8.8277e-05 0.000243738 0)
(-2.79351e-05 0.000224107 4.7219e-24)
(-6.25621e-06 1.82346e-05 2.1432e-24)
(-1.84964e-05 5.24088e-05 -2.2148e-24)
(-3.10404e-05 8.53787e-05 -1.04784e-23)
(-4.3855e-05 0.000117005 9.93493e-24)
(-5.68886e-05 0.000147154 -9.41626e-24)
(-7.00845e-05 0.000175692 1.06951e-23)
(-8.33769e-05 0.000202493 -6.72195e-24)
(-9.66843e-05 0.000227437 1.26545e-23)
(-0.000109908 0.000250418 -5.94604e-24)
(-0.00012293 0.000271342 2.78181e-24)
(-0.000135612 0.000290126 2.60741e-24)
(-0.000147795 0.000306706 -4.90729e-24)
(-0.000159293 0.000321032 0)
(-0.000169901 0.000333073 4.26381e-24)
(-0.00017938 0.00034281 1.04412e-26)
(-0.000187465 0.000350243 7.39899e-24)
(-0.000193859 0.000355381 -6.87409e-24)
(-0.000198229 0.000358248 3.19208e-24)
(-0.00020021 0.000358874 -5.89106e-24)
(-0.000199401 0.000357301 1.09208e-23)
(-0.000195355 0.00035356 0)
(-0.000187582 0.000347683 0)
(-0.000175538 0.000339686 8.60433e-24)
(-0.000158627 0.000329572 3.95969e-24)
(-0.000136195 0.000317316 -7.307e-24)
(-0.000107499 0.000302876 -3.36815e-24)
(-7.17875e-05 0.000286168 6.16123e-24)
(-2.77794e-05 0.000267191 5.66888e-24)
(2.15726e-05 0.000244211 5.20285e-24)
(9.55883e-05 0.000224394 -4.69553e-24)
(-6.90962e-06 1.85925e-05 -1.07567e-23)
(-2.02612e-05 5.34728e-05 2.21479e-24)
(-3.37096e-05 8.71663e-05 0)
(-4.72046e-05 0.000119524 0)
(-6.06784e-05 0.000150402 -7.60134e-24)
(-7.40564e-05 0.000179654 3.60189e-24)
(-8.72529e-05 0.000207145 0)
(-0.000100166 0.000232745 0)
(-0.000112678 0.000256337 -2.98518e-24)
(-0.00012465 0.000277815 8.43988e-24)
(-0.000135923 0.000297089 -1.75088e-26)
(-0.000146316 0.000314083 2.47025e-24)
(-0.000155626 0.00032874 -1.41837e-26)
(-0.000163623 0.000341019 -8.56408e-24)
(-0.000170045 0.000350896 7.99894e-24)
(-0.000174603 0.000358362 1.95455e-26)
(-0.000176974 0.000363422 3.44151e-24)
(-0.000176802 0.000366094 1.28162e-23)
(-0.000173699 0.000366408 -1.77953e-23)
(-0.000167232 0.000364397 0)
(-0.000156923 0.000360093 0)
(-0.000142249 0.000353522 9.37939e-24)
(-0.00012263 0.000344699 -4.32392e-24)
(-9.74331e-05 0.00033362 3.98884e-24)
(-6.59605e-05 0.000320257 -3.66342e-24)
(-2.74249e-05 0.000304564 2.02152e-23)
(1.89618e-05 0.000286442 -3.55345e-27)
(7.44069e-05 0.000265851 -8.50838e-24)
(0.000136439 0.000241119 1.05437e-26)
(0.000224949 0.000219968 9.44306e-24)
(-7.52845e-06 1.87823e-05 -6.51436e-24)
(-2.19301e-05 5.40503e-05 8.98093e-24)
(-3.6228e-05 8.81577e-05 0)
(-5.03529e-05 0.000120947 -8.09889e-24)
(-6.42197e-05 0.000152262 3.81351e-24)
(-7.77334e-05 0.000181951 0)
(-9.07867e-05 0.000209865 3.42627e-24)
(-0.000103256 0.000235866 -3.22411e-24)
(-0.000115001 0.000259827 -3.00637e-24)
(-0.000125859 0.000281634 -2.82022e-24)
(-0.000135651 0.000301185 2.64137e-24)
(-0.000144174 0.000318397 -9.91255e-24)
(-0.0001512 0.000333204 9.25462e-24)
(-0.000156471 0.000345558 4.3268e-24)
(-0.000159703 0.000355424 -8.03285e-24)
(-0.000160581 0.00036279 1.98793e-26)
(-0.00015876 0.000367654 -6.9331e-24)
(-0.00015386 0.000370031 -6.41252e-24)
(-0.00014546 0.000369947 5.94959e-24)
(-0.000133099 0.000367429 5.51502e-24)
(-0.000116269 0.000362508 1.01972e-23)
(-9.44122e-05 0.000355205 -9.39983e-24)
(-6.69163e-05 0.000345532 0)
(-3.31097e-05 0.000333481 -7.98137e-24)
(7.74515e-06 0.000319018 -3.68417e-24)
(5.64794e-05 0.000302092 -3.35827e-24)
(0.000113916 0.000282586 9.30399e-24)
(0.000181244 0.00026044 -5.68609e-24)
(0.000256192 0.00023407 -5.17113e-24)
(0.000359763 0.000211522 4.74743e-24)
(-8.10359e-06 1.88142e-05 -2.18481e-24)
(-2.34769e-05 5.41686e-05 2.27802e-24)
(-3.85527e-05 8.83939e-05 -2.16412e-24)
(-5.32417e-05 0.000121324 -2.05155e-24)
(-6.7439e-05 0.000152796 3.8483e-24)
(-8.10279e-05 0.000182646 1.09645e-23)
(-9.38776e-05 0.000210719 -1.37606e-23)
(-0.000105841 0.000236868 3.22416e-24)
(-0.000116753 0.000260954 -3.02755e-24)
(-0.000126428 0.000282857 1.14019e-23)
(-0.000134663 0.00030247 -1.06743e-23)
(-0.000141226 0.000319701 4.97536e-24)
(-0.00014586 0.000334472 -1.39652e-23)
(-0.000148286 0.000346726 -8.67373e-24)
(-0.000148196 0.000356426 1.61606e-23)
(-0.000145249 0.000363551 3.76109e-24)
(-0.000139071 0.000368098 -1.39619e-23)
(-0.000129255 0.000370077 1.29372e-23)
(-0.00011535 0.000369507 -5.98765e-24)
(-9.68653e-05 0.000366413 -5.54668e-24)
(-7.32612e-05 0.000360822 1.95354e-26)
(-4.39479e-05 0.000352754 0)
(-8.27945e-06 0.000342216 4.35796e-24)
(3.44517e-05 0.000329196 0)
(8.50212e-05 0.000313656 7.36152e-24)
(0.000144302 0.000295536 1.68449e-26)
(0.00021315 0.000274708 0)
(0.000292775 0.000251098 1.20003e-26)
(0.000380916 0.000223092 -5.18591e-24)
(0.000500013 0.000199425 4.75375e-24)
(-8.62754e-06 1.87005e-05 0)
(-2.48793e-05 5.38601e-05 -2.27802e-24)
(-4.0647e-05 8.79238e-05 -6.53216e-24)
(-5.58196e-05 0.000120719 1.4435e-23)
(-7.0271e-05 0.000152075 -1.17124e-23)
(-8.38608e-05 0.000181821 -3.66342e-24)
(-9.64332e-05 0.000209795 1.03917e-23)
(-0.000107815 0.000235841 -3.2753e-24)
(-0.000117816 0.000259816 3.07296e-24)
(-0.000126224 0.000281589 -5.74456e-24)
(-0.000132805 0.000301043 5.37254e-24)
(-0.000137303 0.000318081 -5.02441e-24)
(-0.000139436 0.000332621 -2.99636e-26)
(-0.000138895 0.0003446 4.89503e-27)
(-0.000135346 0.000353975 4.07845e-24)
(-0.000128418 0.00036072 0)
(-0.00011771 0.000364827 6.98778e-24)
(-0.000102784 0.000366301 -6.47757e-24)
(-8.31598e-05 0.000365158 0)
(-5.83154e-05 0.000361421 5.5464e-24)
(-2.76806e-05 0.000355115 6.11633e-27)
(9.36697e-06 0.000346256 -4.73946e-24)
(5.35068e-05 0.00033485 -1.31006e-23)
(0.000105481 0.00032088 -8.04783e-24)
(0.000166101 0.000304304 0)
(0.000236278 0.000285058 -6.78191e-24)
(0.000316901 0.000262997 0)
(0.000409221 0.000238041 -5.70846e-24)
(0.000510859 0.000208446 0)
(0.000645934 0.000183994 -9.42657e-24)
(-9.09434e-06 1.84545e-05 0)
(-2.61187e-05 5.31605e-05 0)
(-4.24786e-05 8.68024e-05 0)
(-5.80401e-05 0.000119203 -8.31819e-24)
(-7.26541e-05 0.000150183 1.17801e-23)
(-8.61551e-05 0.000179569 -7.42595e-24)
(-9.83604e-05 0.000207191 3.51161e-24)
(-0.000109069 0.000232889 6.57689e-24)
(-0.000118063 0.000256513 0)
(-0.000125101 0.000277926 -5.80695e-24)
(-0.000129921 0.000297007 1.08195e-23)
(-0.000132239 0.00031365 -1.19208e-26)
(-0.000131743 0.000327771 -5.71794e-27)
(-0.000128097 0.0003393 -4.37929e-24)
(-0.000120934 0.000348192 4.0976e-24)
(-0.000109855 0.000354415 0)
(-9.44275e-05 0.000357958 -1.40945e-23)
(-7.41831e-05 0.000358824 1.30474e-23)
(-4.86113e-05 0.000357026 -6.04228e-24)
(-1.71583e-05 0.000352587 0)
(2.0778e-05 0.000345528 -5.14783e-24)
(6.58527e-05 0.000335865 4.75627e-24)
(0.000118778 0.000323603 4.3684e-24)
(0.000180328 0.000308723 4.01113e-24)
(0.00025135 0.000291179 0)
(0.00033279 0.000270901 6.81211e-24)
(0.000425563 0.000247729 0)
(0.000530977 0.000221581 0)
(0.000646418 0.000190508 5.2993e-24)
(0.000797953 0.000165631 9.40781e-24)
(-9.49908e-06 1.80898e-05 0)
(-2.71787e-05 5.21071e-05 0)
(-4.4018e-05 8.50879e-05 0)
(-5.98588e-05 0.00011685 8.39432e-24)
(-7.45279e-05 0.000147212 7.93335e-24)
(-8.78328e-05 0.000175995 -1.12517e-23)
(-9.95626e-05 0.000203025 3.53768e-24)
(-0.000109488 0.000228139 -6.60615e-24)
(-0.00011736 0.000251182 6.218e-24)
(-0.000122908 0.000272013 -1.16751e-23)
(-0.00012584 0.000290508 1.5046e-26)
(-0.000125841 0.000306557 1.53067e-26)
(-0.000122569 0.000320071 4.77006e-24)
(-0.000115656 0.000330979 0)
(-0.000104703 0.000339231 -1.23091e-23)
(-8.92801e-05 0.000344795 7.63899e-24)
(-6.89233e-05 0.000347657 7.05896e-24)
(-4.3131e-05 0.000347818 -6.57041e-24)
(-1.13612e-05 0.000345292 6.07697e-24)
(2.69728e-05 0.0003401 -5.59704e-24)
(7.25056e-05 0.000332264 1.03428e-23)
(0.000125924 0.000321802 -4.77301e-24)
(0.000187973 0.000308716 0)
(0.000259459 0.00029299 1.61417e-23)
(0.000341258 0.000274573 -1.48709e-23)
(0.000434349 0.000253393 -9.17056e-29)
(0.000539667 0.000229272 -6.26116e-24)
(0.000658565 0.000202136 -5.72586e-24)
(0.000788141 0.000169745 -5.23654e-24)
(0.000956636 0.000144854 0)
(-9.83784e-06 1.76196e-05 0)
(-2.80456e-05 5.07364e-05 0)
(-4.52391e-05 8.28375e-05 4.44735e-24)
(-6.12354e-05 0.000113739 -8.43569e-24)
(-7.58354e-05 0.000143256 -8.00371e-24)
(-8.8819e-05 0.000171207 1.13181e-23)
(-9.99456e-05 0.000197419 -3.5714e-24)
(-0.000108956 0.000221723 -6.68452e-24)
(-0.000115569 0.000243965 3.14799e-24)
(-0.000119484 0.000264002 0)
(-0.000120376 0.000281707 1.09733e-23)
(-0.000117898 0.000296968 -1.02621e-23)
(-0.000111677 0.000309696 0)
(-0.000101309 0.000319819 0)
(-8.63628e-05 0.000327284 -4.14626e-24)
(-6.63761e-05 0.00033206 -7.69566e-24)
(-4.08508e-05 0.000334132 7.13246e-24)
(-9.25151e-06 0.000333503 6.5704e-24)
(2.89974e-05 0.000330188 -1.21811e-23)
(7.45158e-05 0.000324208 -5.63704e-24)
(0.000127971 0.00031559 5.19998e-24)
(0.000190084 0.000304352 -4.77798e-24)
(0.000261627 0.000290501 4.40997e-24)
(0.000343438 0.000274021 0)
(0.000436419 0.000254861 4.71078e-28)
(0.00054157 0.000232948 2.05013e-23)
(0.00065983 0.000208088 -6.27066e-24)
(0.000792622 0.000180212 0)
(0.000936672 0.000146718 1.05127e-23)
(0.00112262 0.000122283 -9.39762e-24)
(-1.01074e-05 1.70563e-05 0)
(-2.87071e-05 4.90832e-05 -9.50993e-24)
(-4.61181e-05 8.01071e-05 8.99018e-24)
(-6.21315e-05 0.000109944 4.2904e-24)
(-7.65216e-05 0.000138407 -8.08465e-24)
(-8.90393e-05 0.000165316 -3.78832e-24)
(-9.94136e-05 0.000190496 1.7918e-23)
(-0.000107353 0.000213781 -1.6858e-23)
(-0.000112546 0.000235016 9.50504e-24)
(-0.000114658 0.000254058 5.94163e-24)
(-0.000113331 0.00027078 5.55293e-24)
(-0.000108183 0.000285073 0)
(-9.88072e-05 0.000296847 -9.61029e-24)
(-8.4765e-05 0.00030603 8.96303e-24)
(-6.5591e-05 0.000312572 1.24533e-23)
(-4.07867e-05 0.000316443 -7.77165e-24)
(-9.81921e-06 0.000317632 3.78965e-26)
(2.78818e-05 0.000316143 -6.60935e-24)
(7.29271e-05 0.000311994 6.0991e-24)
(0.000125971 0.000305212 5.63715e-24)
(0.000187713 0.000295827 1.95245e-26)
(0.000258906 0.000283864 0)
(0.000340351 0.000269335 8.84863e-24)
(0.000432912 0.000252226 0)
(0.000537501 0.000232494 7.46792e-24)
(0.000655132 0.000210062 1.35848e-26)
(0.00078675 0.000184718 6.26272e-24)
(0.00093384 0.000156402 -1.29608e-26)
(0.00109268 0.000122071 -2.09631e-23)
(0.00129652 9.86346e-05 1.4151e-23)
(-1.03047e-05 1.64113e-05 0)
(-2.91518e-05 4.71798e-05 -9.60225e-24)
(-4.66317e-05 7.69489e-05 2.27676e-23)
(-6.2509e-05 0.000105535 -4.30001e-24)
(-7.65306e-05 0.000132754 0)
(-8.84177e-05 0.000158427 3.455e-26)
(-9.78679e-05 0.00018238 1.44596e-23)
(-0.000104557 0.000204452 -1.36059e-23)
(-0.000108141 0.000224489 -6.33351e-24)
(-0.00010825 0.000242351 6.00107e-24)
(-0.000104493 0.000257914 -2.2283e-23)
(-9.64519e-05 0.000271072 2.60194e-23)
(-8.36822e-05 0.000281739 -1.93753e-23)
(-6.57115e-05 0.000289845 4.50297e-24)
(-4.20367e-05 0.000295345 -8.35659e-24)
(-1.21229e-05 0.000298212 7.76335e-24)
(2.45995e-05 0.000298441 7.24024e-24)
(6.87373e-05 0.000296041 -6.64114e-24)
(0.000120937 0.000291036 6.1278e-24)
(0.000181888 0.000283461 -5.66361e-24)
(0.000252322 0.000273352 1.86508e-26)
(0.000333021 0.000260745 0)
(0.000424813 0.000245657 -8.84781e-24)
(0.000528566 0.000228087 2.36975e-26)
(0.000645207 0.000207994 2.08756e-26)
(0.000775756 0.000185302 6.85724e-24)
(0.000921145 0.000159778 -6.28892e-24)
(0.0010829 0.000131374 1.15034e-23)
(0.00125681 9.65273e-05 1.05309e-23)
(0.00147884 7.46964e-05 0)
(-1.04271e-05 1.56945e-05 9.40799e-24)
(-2.93681e-05 4.50549e-05 -2.43781e-24)
(-4.67561e-05 7.34104e-05 0)
(-6.23288e-05 0.00010058 -4.33598e-24)
(-7.58049e-05 0.000126383 0)
(-8.68752e-05 0.000150643 -3.86203e-24)
(-9.52052e-05 0.000173194 0)
(-0.000100438 0.000193876 -1.02534e-23)
(-0.000102194 0.000212541 -6.3701e-24)
(-0.00010007 0.000229056 1.80781e-23)
(-9.36386e-05 0.000243302 5.59547e-24)
(-8.24444e-05 0.000255178 -1.56815e-23)
(-6.60061e-05 0.000264602 2.93668e-26)
(-4.38133e-05 0.000271513 2.2662e-23)
(-1.53254e-05 0.000275871 -2.78327e-26)
(2.00308e-05 0.000277658 -1.56533e-23)
(6.2863e-05 0.000276873 -7.20989e-24)
(0.000113815 0.000273536 0)
(0.000173571 0.00026768 6.16079e-24)
(0.000242852 0.000259348 5.6872e-24)
(0.000322425 0.00024859 -1.05212e-23)
(0.000413093 0.000235451 0)
(0.000515693 0.000219966 -8.90128e-24)
(0.000631107 0.000202142 -8.15084e-24)
(0.000760259 0.000181945 -7.47661e-24)
(0.000904157 0.000159301 -6.8341e-24)
(0.00106369 0.000133951 6.29836e-24)
(0.00124041 0.000105863 -1.14984e-23)
(0.00142956 7.08655e-05 1.43044e-26)
(0.0016699 5.13032e-05 9.34292e-24)
(-1.04711e-05 1.49141e-05 0)
(-2.93432e-05 4.27335e-05 -2.47204e-26)
(-4.64657e-05 6.95335e-05 -1.39596e-23)
(-6.15491e-05 9.51383e-05 4.38409e-24)
(-7.42832e-05 0.000119371 0)
(-8.43281e-05 0.000142062 1.95805e-23)
(-9.13168e-05 0.000163051 -3.3164e-23)
(-9.48584e-05 0.000182186 6.93124e-24)
(-9.45387e-05 0.000199328 -1.29445e-23)
(-8.99186e-05 0.000214349 6.10367e-24)
(-8.0533e-05 0.00022714 0)
(-6.58893e-05 0.000237607 0)
(-4.54681e-05 0.000245677 -4.93137e-24)
(-1.87199e-05 0.000251298 4.58258e-24)
(1.4935e-05 0.00025444 0)
(5.61091e-05 0.000255093 7.83212e-24)
(0.000105449 0.000253269 0)
(0.000163636 0.000248997 1.34482e-23)
(0.000231391 0.000242323 -6.21861e-24)
(0.000309468 0.000233305 0)
(0.000398657 0.000222006 -5.30428e-24)
(0.000499776 0.000208491 0)
(0.000613675 0.000192808 1.78267e-23)
(0.000741233 0.00017498 8.19586e-24)
(0.000883348 0.000154983 7.51594e-24)
(0.00104099 0.000132747 0)
(0.00121497 0.000107977 1.74004e-26)
(0.00140684 8.06493e-05 5.77016e-24)
(0.00161128 4.59117e-05 -1.05352e-23)
(0.00186968 2.93079e-05 -9.33788e-24)
(-1.04328e-05 1.4077e-05 9.6025e-24)
(-2.90625e-05 4.0236e-05 -2.5135e-24)
(-4.57319e-05 6.53538e-05 -4.75308e-26)
(-6.01239e-05 8.92609e-05 1.32971e-23)
(-7.18993e-05 0.000111787 -1.2613e-23)
(-8.0687e-05 0.00013277 -3.93413e-24)
(-8.60869e-05 0.000152059 -3.45408e-26)
(-8.76742e-05 0.000169512 -3.15297e-26)
(-8.4999e-05 0.000184999 0)
(-7.75858e-05 0.000198403 -1.22079e-23)
(-6.4931e-05 0.000209624 1.70981e-23)
(-4.65045e-05 0.00021858 -1.06573e-23)
(-2.1747e-05 0.000225211 9.90029e-24)
(9.93029e-06 0.000229474 -4.58283e-24)
(4.91473e-05 0.000231353 0)
(9.65563e-05 0.000230849 7.93142e-24)
(0.000152843 0.000227989 -3.78109e-26)
(0.000218727 0.000222817 -6.73611e-24)
(0.000294961 0.000215393 6.2238e-24)
(0.000382328 0.000205794 -5.76173e-24)
(0.000481634 0.000194102 2.1169e-23)
(0.000593714 0.000180401 -1.94652e-23)
(0.000719415 0.000164762 8.95815e-24)
(0.00085959 0.000147227 -3.28242e-23)
(0.00101509 0.000127786 -1.50152e-23)
(0.0011868 0.00010637 2.89048e-26)
(0.00137543 8.26394e-05 1.26452e-23)
(0.00158244 5.65568e-05 1.73008e-23)
(0.00180205 2.25232e-05 -5.28243e-24)
(0.00207775 9.54303e-06 0)
(-1.03073e-05 1.31882e-05 -9.70427e-24)
(-2.85087e-05 3.75789e-05 -5.26864e-26)
(-4.4522e-05 6.09012e-05 4.71874e-24)
(-5.80021e-05 8.29931e-05 4.45495e-24)
(-6.85808e-05 0.000103692 -2.11926e-23)
(-7.58554e-05 0.000122847 3.19277e-23)
(-7.93926e-05 0.000140318 -2.25129e-23)
(-7.87332e-05 0.000155975 3.52108e-23)
(-7.33916e-05 0.000169698 -1.32119e-23)
(-6.28544e-05 0.000181385 -1.85056e-23)
(-4.65805e-05 0.000190949 1.15525e-23)
(-2.40004e-05 0.00019832 4.12534e-26)
(5.48467e-06 0.000203453 5.02719e-24)
(4.25039e-05 0.00020632 0)
(8.77174e-05 0.000206919 8.57403e-24)
(0.000141817 0.000205269 -7.92351e-24)
(0.000205527 0.000201411 1.47208e-23)
(0.000279604 0.000195407 -6.77777e-24)
(0.000364825 0.000187338 -6.25456e-24)
(0.000461997 0.000177301 -5.76246e-24)
(0.000571945 0.000165401 -1.58806e-23)
(0.000695504 0.000151747 1.95431e-23)
(0.000833499 0.000136435 8.95084e-24)
(0.000986737 0.000119535 -6.72408e-26)
(0.00115598 0.000101055 -2.93168e-26)
(0.00134199 8.09279e-05 0)
(0.00154531 5.87581e-05 2.86048e-26)
(0.00176723 3.44384e-05 -2.30919e-23)
(0.00200167 1.5782e-06 5.1799e-24)
(0.00229316 -7.23096e-06 -9.52142e-24)
(-1.00883e-05 1.22511e-05 7.72265e-27)
(-2.76614e-05 3.47748e-05 1.51485e-23)
(-4.27985e-05 5.61996e-05 0)