/*--------------------------------*- C++ -*----------------------------------*\
| =========                 |                                                 |
| \\      /  F ield         | foam-extend: Open Source CFD                    |
|  \\    /   O peration     | Version:     4.0                                |
|   \\  /    A nd           | Web:         http://www.foam-extend.org         |
|    \\/     M anipulation  |                                                 |
\*---------------------------------------------------------------------------*/
FoamFile
{
    version     2.0;
    format      ascii;
    class       volScalarField;
    location    "40";
    object      p;
}
// * * * * * * * * * * * * * * * * * * * * * * * * * * * * * * * * * * * * * //

dimensions      [0 2 -2 0 0 0 0];

internalField   nonuniform List<scalar> 
36000
(
-7.27211e-06
-7.32795e-06
-7.38653e-06
-7.43989e-06
-7.48877e-06
-7.5341e-06
-7.57597e-06
-7.61428e-06
-7.64897e-06
-7.68001e-06
-7.70741e-06
-7.73113e-06
-7.75108e-06
-7.76706e-06
-7.77872e-06
-7.78557e-06
-7.78688e-06
-7.78165e-06
-7.76859e-06
-7.74603e-06
-7.71191e-06
-7.66372e-06
-7.59854e-06
-7.51298e-06
-7.40323e-06
-7.26481e-06
-7.09335e-06
-6.88494e-06
-6.63577e-06
-6.33864e-06
-7.29194e-06
-7.347e-06
-7.40477e-06
-7.45742e-06
-7.50566e-06
-7.55041e-06
-7.59176e-06
-7.62961e-06
-7.66389e-06
-7.69459e-06
-7.72171e-06
-7.74522e-06
-7.76502e-06
-7.78091e-06
-7.79257e-06
-7.79949e-06
-7.80095e-06
-7.79598e-06
-7.78327e-06
-7.76118e-06
-7.72764e-06
-7.68018e-06
-7.61585e-06
-7.53129e-06
-7.42273e-06
-7.28583e-06
-7.11581e-06
-6.90892e-06
-6.66141e-06
-6.36445e-06
-7.33136e-06
-7.38488e-06
-7.44105e-06
-7.49228e-06
-7.53924e-06
-7.58284e-06
-7.62316e-06
-7.66009e-06
-7.69357e-06
-7.72359e-06
-7.75015e-06
-7.77322e-06
-7.79272e-06
-7.80844e-06
-7.82007e-06
-7.82712e-06
-7.82889e-06
-7.8244e-06
-7.81239e-06
-7.79122e-06
-7.75883e-06
-7.71277e-06
-7.65012e-06
-7.56753e-06
-7.46123e-06
-7.32702e-06
-7.16003e-06
-6.95635e-06
-6.71214e-06
-6.41534e-06
-7.38963e-06
-7.44089e-06
-7.49472e-06
-7.54385e-06
-7.58894e-06
-7.63084e-06
-7.66963e-06
-7.70519e-06
-7.73747e-06
-7.76648e-06
-7.7922e-06
-7.81461e-06
-7.83363e-06
-7.84907e-06
-7.86064e-06
-7.86786e-06
-7.87005e-06
-7.86626e-06
-7.85524e-06
-7.83539e-06
-7.80467e-06
-7.76065e-06
-7.70043e-06
-7.62069e-06
-7.51772e-06
-7.38728e-06
-7.22454e-06
-7.02566e-06
-6.78631e-06
-6.48951e-06
-7.46571e-06
-7.51402e-06
-7.56482e-06
-7.61124e-06
-7.6539e-06
-7.69358e-06
-7.73035e-06
-7.76412e-06
-7.79484e-06
-7.82249e-06
-7.84708e-06
-7.8686e-06
-7.88696e-06
-7.902e-06
-7.91345e-06
-7.92084e-06
-7.92352e-06
-7.92059e-06
-7.91081e-06
-7.8926e-06
-7.86398e-06
-7.82254e-06
-7.76543e-06
-7.68939e-06
-7.59065e-06
-7.46486e-06
-7.30749e-06
-7.11473e-06
-6.88169e-06
-6.58435e-06
-7.55823e-06
-7.60302e-06
-7.65016e-06
-7.6933e-06
-7.73301e-06
-7.77e-06
-7.80433e-06
-7.8359e-06
-7.86467e-06
-7.89064e-06
-7.91383e-06
-7.9342e-06
-7.95171e-06
-7.96621e-06
-7.97743e-06
-7.98495e-06
-7.98816e-06
-7.98616e-06
-7.97779e-06
-7.96148e-06
-7.9353e-06
-7.89689e-06
-7.84348e-06
-7.77178e-06
-7.67794e-06
-7.55765e-06
-7.40662e-06
-7.22105e-06
-6.99573e-06
-6.69654e-06
-7.66562e-06
-7.70636e-06
-7.74931e-06
-7.78869e-06
-7.82499e-06
-7.85886e-06
-7.89034e-06
-7.91934e-06
-7.94583e-06
-7.96981e-06
-7.99129e-06
-8.01027e-06
-8.02671e-06
-8.04048e-06
-8.05134e-06
-8.05891e-06
-8.06261e-06
-8.06158e-06
-8.05469e-06
-8.04044e-06
-8.01696e-06
-7.98194e-06
-7.93261e-06
-7.86565e-06
-7.77725e-06
-7.66316e-06
-7.51924e-06
-7.34179e-06
-7.12562e-06
-6.82171e-06
-7.7861e-06
-7.82239e-06
-7.86071e-06
-7.89591e-06
-7.92841e-06
-7.95879e-06
-7.98706e-06
-8.01316e-06
-8.03704e-06
-8.05871e-06
-8.07821e-06
-8.09554e-06
-8.11067e-06
-8.1235e-06
-8.13383e-06
-8.14131e-06
-8.14539e-06
-8.14527e-06
-8.13988e-06
-8.12777e-06
-8.10711e-06
-8.07563e-06
-8.03055e-06
-7.96863e-06
-7.88611e-06
-7.77872e-06
-7.64237e-06
-7.47361e-06
-7.26872e-06
-6.95334e-06
-7.91779e-06
-7.94932e-06
-7.98266e-06
-8.01335e-06
-8.04175e-06
-8.06832e-06
-8.09308e-06
-8.11596e-06
-8.13693e-06
-8.15602e-06
-8.17325e-06
-8.18865e-06
-8.20222e-06
-8.21388e-06
-8.22347e-06
-8.23066e-06
-8.23497e-06
-8.23567e-06
-8.23169e-06
-8.22164e-06
-8.20374e-06
-8.17577e-06
-8.13503e-06
-8.07833e-06
-8.00193e-06
-7.9015e-06
-7.77284e-06
-7.61293e-06
-7.42374e-06
-7.08553e-06
-8.05875e-06
-8.08531e-06
-8.11344e-06
-8.13939e-06
-8.16343e-06
-8.18595e-06
-8.20694e-06
-8.22634e-06
-8.24414e-06
-8.26037e-06
-8.27506e-06
-8.28826e-06
-8.3e-06
-8.31023e-06
-8.31881e-06
-8.3255e-06
-8.32984e-06
-8.33113e-06
-8.32833e-06
-8.32013e-06
-8.30483e-06
-8.28028e-06
-8.24385e-06
-8.19237e-06
-8.12214e-06
-8.02877e-06
-7.90775e-06
-7.75565e-06
-7.58701e-06
-7.23117e-06
-8.20706e-06
-8.22853e-06
-8.25132e-06
-8.27238e-06
-8.29191e-06
-8.31018e-06
-8.3272e-06
-8.34291e-06
-8.3573e-06
-8.37041e-06
-8.3823e-06
-8.39303e-06
-8.40266e-06
-8.41118e-06
-8.4185e-06
-8.42441e-06
-8.42848e-06
-8.43001e-06
-8.42808e-06
-8.42145e-06
-8.40852e-06
-8.38719e-06
-8.35488e-06
-8.30846e-06
-8.24424e-06
-8.15784e-06
-8.04491e-06
-7.90055e-06
-7.73672e-06
-7.3942e-06
-8.36086e-06
-8.37725e-06
-8.39467e-06
-8.41077e-06
-8.42568e-06
-8.43958e-06
-8.45248e-06
-8.46432e-06
-8.47511e-06
-8.48488e-06
-8.49371e-06
-8.50172e-06
-8.50897e-06
-8.51549e-06
-8.52125e-06
-8.52603e-06
-8.52941e-06
-8.5308e-06
-8.52938e-06
-8.524e-06
-8.5131e-06
-8.49467e-06
-8.46616e-06
-8.42451e-06
-8.36601e-06
-8.28624e-06
-8.18099e-06
-8.04583e-06
-7.88565e-06
-7.55137e-06
-8.51843e-06
-8.52982e-06
-8.54193e-06
-8.55309e-06
-8.56336e-06
-8.57284e-06
-8.58151e-06
-8.58934e-06
-8.59635e-06
-8.60259e-06
-8.60815e-06
-8.61319e-06
-8.61781e-06
-8.62204e-06
-8.62585e-06
-8.62905e-06
-8.63133e-06
-8.6322e-06
-8.63089e-06
-8.62635e-06
-8.61708e-06
-8.60113e-06
-8.57602e-06
-8.5387e-06
-8.48548e-06
-8.41192e-06
-8.31389e-06
-8.18695e-06
-8.0332e-06
-7.6999e-06
-8.67824e-06
-8.68479e-06
-8.69173e-06
-8.69805e-06
-8.70372e-06
-8.70876e-06
-8.71314e-06
-8.71686e-06
-8.71996e-06
-8.72252e-06
-8.72467e-06
-8.72654e-06
-8.72821e-06
-8.72976e-06
-8.7312e-06
-8.73242e-06
-8.73319e-06
-8.73311e-06
-8.7315e-06
-8.72735e-06
-8.71923e-06
-8.70526e-06
-8.68304e-06
-8.64953e-06
-8.60103e-06
-8.53309e-06
-8.44163e-06
-8.32204e-06
-8.17564e-06
-7.83951e-06
-8.83894e-06
-8.84089e-06
-8.84288e-06
-8.84453e-06
-8.84573e-06
-8.84641e-06
-8.84654e-06
-8.8461e-06
-8.84521e-06
-8.84397e-06
-8.8425e-06
-8.84088e-06
-8.83924e-06
-8.83774e-06
-8.83643e-06
-8.83529e-06
-8.83418e-06
-8.83275e-06
-8.83037e-06
-8.8261e-06
-8.8186e-06
-8.80606e-06
-8.78612e-06
-8.7558e-06
-8.71139e-06
-8.64841e-06
-8.5628e-06
-8.4497e-06
-8.31054e-06
-7.96926e-06
-8.99933e-06
-8.99696e-06
-8.99428e-06
-8.99147e-06
-8.98835e-06
-8.9848e-06
-8.98076e-06
-8.97625e-06
-8.97132e-06
-8.96608e-06
-8.96068e-06
-8.95528e-06
-8.95009e-06
-8.9453e-06
-8.94098e-06
-8.93717e-06
-8.93378e-06
-8.93054e-06
-8.92689e-06
-8.92198e-06
-8.91454e-06
-8.90283e-06
-8.88455e-06
-8.85674e-06
-8.81573e-06
-8.75697e-06
-8.67641e-06
-8.56892e-06
-8.4365e-06
-8.08816e-06
-9.15858e-06
-9.15223e-06
-9.14518e-06
-9.13814e-06
-9.13087e-06
-9.12317e-06
-9.115e-06
-9.10637e-06
-9.09736e-06
-9.08808e-06
-9.07871e-06
-9.06945e-06
-9.06055e-06
-9.05221e-06
-9.04456e-06
-9.03771e-06
-9.03164e-06
-9.02613e-06
-9.02073e-06
-9.01465e-06
-9.0067e-06
-8.99521e-06
-8.97794e-06
-8.95197e-06
-8.9136e-06
-8.85827e-06
-8.78191e-06
-8.67906e-06
-8.55273e-06
-8.19556e-06
-9.31613e-06
-9.30616e-06
-9.29509e-06
-9.2841e-06
-9.27289e-06
-9.26122e-06
-9.24902e-06
-9.23633e-06
-9.22324e-06
-9.20988e-06
-9.19645e-06
-9.1832e-06
-9.1704e-06
-9.15826e-06
-9.14699e-06
-9.13677e-06
-9.12763e-06
-9.11945e-06
-9.11183e-06
-9.10408e-06
-9.09507e-06
-9.08321e-06
-9.06628e-06
-9.04142e-06
-9.00494e-06
-8.9522e-06
-8.87912e-06
-8.77989e-06
-8.65889e-06
-8.29121e-06
-9.47169e-06
-9.45844e-06
-9.44371e-06
-9.42906e-06
-9.41415e-06
-9.39868e-06
-9.38259e-06
-9.36592e-06
-9.34879e-06
-9.33134e-06
-9.3138e-06
-9.29646e-06
-9.27959e-06
-9.26343e-06
-9.2483e-06
-9.23441e-06
-9.22188e-06
-9.21064e-06
-9.20038e-06
-9.19048e-06
-9.17989e-06
-9.16706e-06
-9.14985e-06
-9.1254e-06
-9.09001e-06
-9.03898e-06
-8.96821e-06
-8.87151e-06
-8.75501e-06
-8.37519e-06
-9.62519e-06
-9.60902e-06
-9.59097e-06
-9.57295e-06
-9.55457e-06
-9.5355e-06
-9.51566e-06
-9.49512e-06
-9.474e-06
-9.45247e-06
-9.4308e-06
-9.40929e-06
-9.38821e-06
-9.36789e-06
-9.34869e-06
-9.3309e-06
-9.31469e-06
-9.30006e-06
-9.28677e-06
-9.27429e-06
-9.26162e-06
-9.24729e-06
-9.22918e-06
-9.20442e-06
-9.16932e-06
-9.1191e-06
-9.04964e-06
-8.95425e-06
-8.84142e-06
-8.44788e-06
-9.77681e-06
-9.75804e-06
-9.737e-06
-9.71588e-06
-9.69427e-06
-9.67177e-06
-9.64834e-06
-9.62404e-06
-9.59901e-06
-9.57345e-06
-9.54766e-06
-9.52191e-06
-9.49653e-06
-9.47195e-06
-9.44854e-06
-9.42665e-06
-9.40652e-06
-9.38822e-06
-9.37158e-06
-9.35613e-06
-9.34096e-06
-9.3246e-06
-9.30497e-06
-9.27922e-06
-9.24359e-06
-9.19325e-06
-9.12405e-06
-9.02869e-06
-8.91854e-06
-8.50994e-06
-9.92692e-06
-9.90584e-06
-9.88211e-06
-9.85814e-06
-9.8335e-06
-9.80778e-06
-9.7809e-06
-9.75296e-06
-9.7241e-06
-9.69458e-06
-9.66467e-06
-9.63467e-06
-9.60497e-06
-9.57605e-06
-9.54832e-06
-9.5222e-06
-9.49796e-06
-9.47577e-06
-9.45551e-06
-9.43677e-06
-9.41869e-06
-9.39982e-06
-9.37809e-06
-9.35063e-06
-9.31365e-06
-9.26224e-06
-9.19222e-06
-9.09559e-06
-8.98689e-06
-8.56213e-06
-1.00761e-05
-1.00529e-05
-1.00267e-05
-1.00002e-05
-9.97268e-06
-9.94389e-06
-9.91371e-06
-9.88224e-06
-9.84968e-06
-9.81626e-06
-9.78226e-06
-9.74802e-06
-9.71402e-06
-9.68072e-06
-9.64863e-06
-9.61817e-06
-9.58971e-06
-9.56346e-06
-9.53936e-06
-9.51706e-06
-9.49568e-06
-9.47384e-06
-9.44943e-06
-9.41956e-06
-9.38039e-06
-9.32689e-06
-9.25489e-06
-9.15572e-06
-9.04698e-06
-8.60536e-06
-1.02249e-05
-1.01999e-05
-1.01715e-05
-1.01424e-05
-1.01123e-05
-1.00806e-05
-1.00472e-05
-1.00124e-05
-9.97619e-06
-9.93894e-06
-9.90091e-06
-9.86251e-06
-9.82422e-06
-9.78657e-06
-9.75009e-06
-9.71526e-06
-9.6825e-06
-9.65207e-06
-9.62397e-06
-9.59783e-06
-9.57283e-06
-9.54756e-06
-9.51991e-06
-9.48692e-06
-9.44467e-06
-9.388e-06
-9.31274e-06
-9.20978e-06
-9.09923e-06
-8.64066e-06
-1.03742e-05
-1.03475e-05
-1.0317e-05
-1.02856e-05
-1.02529e-05
-1.02184e-05
-1.0182e-05
-1.01439e-05
-1.01042e-05
-1.00632e-05
-1.00212e-05
-9.97868e-06
-9.93618e-06
-9.89422e-06
-9.85337e-06
-9.81417e-06
-9.77709e-06
-9.7424e-06
-9.71013e-06
-9.67993e-06
-9.65098e-06
-9.62186e-06
-9.5904e-06
-9.55356e-06
-9.5073e-06
-9.44632e-06
-9.36643e-06
-9.25839e-06
-9.14396e-06
-8.66966e-06
-1.05247e-05
-1.04964e-05
-1.04639e-05
-1.04304e-05
-1.03952e-05
-1.0358e-05
-1.03186e-05
-1.02773e-05
-1.02341e-05
-1.01895e-05
-1.01436e-05
-1.00971e-05
-1.00505e-05
-1.00043e-05
-9.95913e-06
-9.9156e-06
-9.87419e-06
-9.83518e-06
-9.79861e-06
-9.76414e-06
-9.73093e-06
-9.69753e-06
-9.66167e-06
-9.62023e-06
-9.56902e-06
-9.50254e-06
-9.41662e-06
-9.30204e-06
-9.18106e-06
-8.69496e-06
-1.06774e-05
-1.06475e-05
-1.0613e-05
-1.05773e-05
-1.05398e-05
-1.04999e-05
-1.04576e-05
-1.04131e-05
-1.03666e-05
-1.03184e-05
-1.02688e-05
-1.02184e-05
-1.01677e-05
-1.01174e-05
-1.0068e-05
-1.00202e-05
-9.97445e-06
-9.93107e-06
-9.89008e-06
-9.85114e-06
-9.81337e-06
-9.77523e-06
-9.73439e-06
-9.68757e-06
-9.63042e-06
-9.55731e-06
-9.46373e-06
-9.34109e-06
-9.20888e-06
-8.71792e-06
-1.08329e-05
-1.08014e-05
-1.0765e-05
-1.07271e-05
-1.06872e-05
-1.06447e-05
-1.05996e-05
-1.0552e-05
-1.05022e-05
-1.04505e-05
-1.03973e-05
-1.03431e-05
-1.02885e-05
-1.02341e-05
-1.01806e-05
-1.01285e-05
-1.00784e-05
-1.00306e-05
-9.98512e-06
-9.9415e-06
-9.89883e-06
-9.8555e-06
-9.80906e-06
-9.75609e-06
-9.69198e-06
-9.61117e-06
-9.50821e-06
-9.37503e-06
-9.21946e-06
-8.72823e-06
-1.09921e-05
-1.09588e-05
-1.09204e-05
-1.08803e-05
-1.0838e-05
-1.07929e-05
-1.0745e-05
-1.06944e-05
-1.06414e-05
-1.05863e-05
-1.05295e-05
-1.04716e-05
-1.04132e-05
-1.03549e-05
-1.02973e-05
-1.0241e-05
-1.01866e-05
-1.01344e-05
-1.00842e-05
-1.00356e-05
-9.98772e-06
-9.9387e-06
-9.88601e-06
-9.8261e-06
-9.7543e-06
-9.66483e-06
-9.55125e-06
-9.40444e-06
-9.20385e-06
-8.71418e-06
-1.11555e-05
-1.11205e-05
-1.10799e-05
-1.10375e-05
-1.09928e-05
-1.09451e-05
-1.08943e-05
-1.08407e-05
-1.07845e-05
-1.07261e-05
-1.06659e-05
-1.06044e-05
-1.05423e-05
-1.04801e-05
-1.04185e-05
-1.03581e-05
-1.02994e-05
-1.02426e-05
-1.01876e-05
-1.01338e-05
-1.00803e-05
-1.0025e-05
-9.96544e-06
-9.89782e-06
-9.81772e-06
-9.71943e-06
-9.59571e-06
-9.43754e-06
-9.19314e-06
-8.80207e-06
-1.13237e-05
-1.12867e-05
-1.12439e-05
-1.11992e-05
-1.11519e-05
-1.11015e-05
-1.1048e-05
-1.09914e-05
-1.09321e-05
-1.08704e-05
-1.08068e-05
-1.07418e-05
-1.0676e-05
-1.061e-05
-1.05445e-05
-1.048e-05
-1.04169e-05
-1.03554e-05
-1.02954e-05
-1.02361e-05
-1.01765e-05
-1.01144e-05
-1.00472e-05
-9.97124e-06
-9.88215e-06
-9.7752e-06
-9.64357e-06
-9.48533e-06
-9.26231e-06
-9.32442e-06
-1.1497e-05
-1.1458e-05
-1.14128e-05
-1.13656e-05
-1.13158e-05
-1.12626e-05
-1.12062e-05
-1.11466e-05
-1.10842e-05
-1.10193e-05
-1.09524e-05
-1.0884e-05
-1.08146e-05
-1.07449e-05
-1.06754e-05
-1.06068e-05
-1.05393e-05
-1.0473e-05
-1.04077e-05
-1.03425e-05
-1.02762e-05
-1.02066e-05
-1.01309e-05
-1.00456e-05
-9.94625e-06
-9.82873e-06
-9.68685e-06
-9.52333e-06
-9.3086e-06
-9.42106e-06
-1.16759e-05
-1.16346e-05
-1.15868e-05
-1.1537e-05
-1.14845e-05
-1.14285e-05
-1.13692e-05
-1.13066e-05
-1.12412e-05
-1.11731e-05
-1.11029e-05
-1.1031e-05
-1.09581e-05
-1.08847e-05
-1.08114e-05
-1.07385e-05
-1.06665e-05
-1.05952e-05
-1.05242e-05
-1.04527e-05
-1.03791e-05
-1.03013e-05
-1.02162e-05
-1.01202e-05
-1.00092e-05
-9.87891e-06
-9.7238e-06
-9.54726e-06
-9.31611e-06
-9.36986e-06
-1.18603e-05
-1.18165e-05
-1.1766e-05
-1.17134e-05
-1.16581e-05
-1.15994e-05
-1.15371e-05
-1.14715e-05
-1.14029e-05
-1.13317e-05
-1.12582e-05
-1.1183e-05
-1.11066e-05
-1.10295e-05
-1.09522e-05
-1.08751e-05
-1.07983e-05
-1.07217e-05
-1.06447e-05
-1.05664e-05
-1.04848e-05
-1.03978e-05
-1.03023e-05
-1.01945e-05
-1.00702e-05
-9.92548e-06
-9.75454e-06
-9.5604e-06
-9.30759e-06
-9.30721e-06
-1.20502e-05
-1.20039e-05
-1.19504e-05
-1.1895e-05
-1.18368e-05
-1.17751e-05
-1.17098e-05
-1.16412e-05
-1.15695e-05
-1.14951e-05
-1.14184e-05
-1.13398e-05
-1.12599e-05
-1.11791e-05
-1.10977e-05
-1.10162e-05
-1.09344e-05
-1.08522e-05
-1.07688e-05
-1.06829e-05
-1.05927e-05
-1.04958e-05
-1.03887e-05
-1.02679e-05
-1.0129e-05
-9.96813e-06
-9.77961e-06
-9.56572e-06
-9.2915e-06
-9.24259e-06
-1.22456e-05
-1.21964e-05
-1.21398e-05
-1.20814e-05
-1.20202e-05
-1.19555e-05
-1.18872e-05
-1.18155e-05
-1.17407e-05
-1.16632e-05
-1.15832e-05
-1.15013e-05
-1.14178e-05
-1.13332e-05
-1.12477e-05
-1.11615e-05
-1.10745e-05
-1.09862e-05
-1.08958e-05
-1.08018e-05
-1.07022e-05
-1.05942e-05
-1.04746e-05
-1.03396e-05
-1.01849e-05
-1.00066e-05
-9.79944e-06
-9.56497e-06
-9.27036e-06
-9.17648e-06
-1.24459e-05
-1.23938e-05
-1.2334e-05
-1.22725e-05
-1.22082e-05
-1.21404e-05
-1.2069e-05
-1.19943e-05
-1.19164e-05
-1.18356e-05
-1.17524e-05
-1.16671e-05
-1.158e-05
-1.14914e-05
-1.14016e-05
-1.13105e-05
-1.12179e-05
-1.11232e-05
-1.10252e-05
-1.09223e-05
-1.08124e-05
-1.06925e-05
-1.05594e-05
-1.0409e-05
-1.02374e-05
-1.00409e-05
-9.81431e-06
-9.55917e-06
-9.2454e-06
-9.11009e-06
-1.26509e-05
-1.25957e-05
-1.25326e-05
-1.24678e-05
-1.24004e-05
-1.23295e-05
-1.2255e-05
-1.21771e-05
-1.20961e-05
-1.20121e-05
-1.19256e-05
-1.18368e-05
-1.1746e-05
-1.16533e-05
-1.1559e-05
-1.14627e-05
-1.13641e-05
-1.12623e-05
-1.11561e-05
-1.10436e-05
-1.09225e-05
-1.07898e-05
-1.0642e-05
-1.04754e-05
-1.02861e-05
-1.00706e-05
-9.82435e-06
-9.54882e-06
-9.21724e-06
-9.04412e-06
-1.28599e-05
-1.28015e-05
-1.2735e-05
-1.26669e-05
-1.25963e-05
-1.25222e-05
-1.24445e-05
-1.23635e-05
-1.22793e-05
-1.21921e-05
-1.21023e-05
-1.20099e-05
-1.19152e-05
-1.18183e-05
-1.17191e-05
-1.16173e-05
-1.15122e-05
-1.14028e-05
-1.12877e-05
-1.11648e-05
-1.10316e-05
-1.08851e-05
-1.07218e-05
-1.05381e-05
-1.03303e-05
-1.00954e-05
-9.82949e-06
-9.53413e-06
-9.18602e-06
-8.97833e-06
-1.30723e-05
-1.30106e-05
-1.29405e-05
-1.28691e-05
-1.27952e-05
-1.2718e-05
-1.26372e-05
-1.2553e-05
-1.24656e-05
-1.23752e-05
-1.22819e-05
-1.21858e-05
-1.20872e-05
-1.19858e-05
-1.18814e-05
-1.17736e-05
-1.16615e-05
-1.15439e-05
-1.14191e-05
-1.1285e-05
-1.11389e-05
-1.09776e-05
-1.07979e-05
-1.05963e-05
-1.03695e-05
-1.0115e-05
-9.82957e-06
-9.51507e-06
-9.15162e-06
-8.9121e-06
-1.32872e-05
-1.32222e-05
-1.31485e-05
-1.30737e-05
-1.29966e-05
-1.29162e-05
-1.28322e-05
-1.27448e-05
-1.26542e-05
-1.25605e-05
-1.24637e-05
-1.23639e-05
-1.2261e-05
-1.21548e-05
-1.2045e-05
-1.19307e-05
-1.1811e-05
-1.16846e-05
-1.15494e-05
-1.14031e-05
-1.12431e-05
-1.10663e-05
-1.08694e-05
-1.06493e-05
-1.04031e-05
-1.01289e-05
-9.82434e-06
-9.49151e-06
-9.11396e-06
-8.84545e-06
-1.35038e-05
-1.34354e-05
-1.33581e-05
-1.32799e-05
-1.31996e-05
-1.31159e-05
-1.30288e-05
-1.29383e-05
-1.28445e-05
-1.27474e-05
-1.2647e-05
-1.25433e-05
-1.24359e-05
-1.23247e-05
-1.22089e-05
-1.20877e-05
-1.19598e-05
-1.18237e-05
-1.16773e-05
-1.15181e-05
-1.13434e-05
-1.11502e-05
-1.09354e-05
-1.06963e-05
-1.04306e-05
-1.01368e-05
-9.81343e-06
-9.46311e-06
-9.07247e-06
-8.77807e-06
-1.3721e-05
-1.36493e-05
-1.35684e-05
-1.34868e-05
-1.34033e-05
-1.33165e-05
-1.32263e-05
-1.31326e-05
-1.30355e-05
-1.2935e-05
-1.28309e-05
-1.27231e-05
-1.2611e-05
-1.24944e-05
-1.23722e-05
-1.22435e-05
-1.21068e-05
-1.19604e-05
-1.18019e-05
-1.16289e-05
-1.14387e-05
-1.12283e-05
-1.09951e-05
-1.07366e-05
-1.04512e-05
-1.0138e-05
-9.79644e-06
-9.42946e-06
-9.02657e-06
-8.70895e-06
-1.39378e-05
-1.38627e-05
-1.37782e-05
-1.36933e-05
-1.36067e-05
-1.35168e-05
-1.34235e-05
-1.33267e-05
-1.32264e-05
-1.31224e-05
-1.30145e-05
-1.29023e-05
-1.27853e-05
-1.26628e-05
-1.25338e-05
-1.23971e-05
-1.22509e-05
-1.20933e-05
-1.1922e-05
-1.17344e-05
-1.15278e-05
-1.12996e-05
-1.10475e-05
-1.07694e-05
-1.04644e-05
-1.01321e-05
-9.77293e-06
-9.39014e-06
-8.97577e-06
-8.63735e-06
-1.4153e-05
-1.40746e-05
-1.39866e-05
-1.38985e-05
-1.38088e-05
-1.37159e-05
-1.36196e-05
-1.35197e-05
-1.34161e-05
-1.33085e-05
-1.31966e-05
-1.30799e-05
-1.29577e-05
-1.2829e-05
-1.26926e-05
-1.25472e-05
-1.23908e-05
-1.22213e-05
-1.20363e-05
-1.18334e-05
-1.16098e-05
-1.13633e-05
-1.10918e-05
-1.07941e-05
-1.04695e-05
-1.01187e-05
-9.74249e-06
-9.34473e-06
-8.91961e-06
-8.56243e-06
-1.43652e-05
-1.42836e-05
-1.41923e-05
-1.41011e-05
-1.40084e-05
-1.39126e-05
-1.38133e-05
-1.37103e-05
-1.36034e-05
-1.34922e-05
-1.33763e-05
-1.32548e-05
-1.31269e-05
-1.29916e-05
-1.28474e-05
-1.26926e-05
-1.25252e-05
-1.23431e-05
-1.21437e-05
-1.19246e-05
-1.16835e-05
-1.14182e-05
-1.11272e-05
-1.08098e-05
-1.0466e-05
-1.00971e-05
-9.70469e-06
-9.29288e-06
-8.85785e-06
-8.48396e-06
-1.45733e-05
-1.44886e-05
-1.4394e-05
-1.42998e-05
-1.42042e-05
-1.41056e-05
-1.40034e-05
-1.38974e-05
-1.37873e-05
-1.36724e-05
-1.35521e-05
-1.34256e-05
-1.32918e-05
-1.31494e-05
-1.29967e-05
-1.2832e-05
-1.2653e-05
-1.24574e-05
-1.2243e-05
-1.20071e-05
-1.17478e-05
-1.14634e-05
-1.11528e-05
-1.08159e-05
-1.04533e-05
-1.0067e-05
-9.65912e-06
-9.23423e-06
-8.79037e-06
-8.40249e-06
-1.47757e-05
-1.46881e-05
-1.45904e-05
-1.44933e-05
-1.43951e-05
-1.42938e-05
-1.41888e-05
-1.40798e-05
-1.39663e-05
-1.38476e-05
-1.37229e-05
-1.35911e-05
-1.3451e-05
-1.3301e-05
-1.31393e-05
-1.2964e-05
-1.27727e-05
-1.25631e-05
-1.23328e-05
-1.20796e-05
-1.18018e-05
-1.1498e-05
-1.11678e-05
-1.08116e-05
-1.04308e-05
-1.00277e-05
-9.60531e-06
-9.1683e-06
-8.7165e-06
-8.31651e-06
-1.49711e-05
-1.48806e-05
-1.47801e-05
-1.46803e-05
-1.45795e-05
-1.44756e-05
-1.4368e-05
-1.4256e-05
-1.41392e-05
-1.40166e-05
-1.38873e-05
-1.37499e-05
-1.36031e-05
-1.34451e-05
-1.32738e-05
-1.30873e-05
-1.28829e-05
-1.26586e-05
-1.24119e-05
-1.2141e-05
-1.18443e-05
-1.15211e-05
-1.11715e-05
-1.07964e-05
-1.03979e-05
-9.97898e-06
-9.54288e-06
-9.0948e-06
-8.63556e-06
-8.22267e-06
-1.51578e-05
-1.50647e-05
-1.49615e-05
-1.48592e-05
-1.47561e-05
-1.46498e-05
-1.45395e-05
-1.44247e-05
-1.43046e-05
-1.4178e-05
-1.40438e-05
-1.39006e-05
-1.37467e-05
-1.35801e-05
-1.33988e-05
-1.32003e-05
-1.29824e-05
-1.27427e-05
-1.24792e-05
-1.21901e-05
-1.18744e-05
-1.15319e-05
-1.11631e-05
-1.07697e-05
-1.03543e-05
-9.92026e-06
-9.4715e-06
-9.01365e-06
-8.54705e-06
-8.12139e-06
-1.53343e-05
-1.52388e-05
-1.51331e-05
-1.50286e-05
-1.49232e-05
-1.48147e-05
-1.4702e-05
-1.45844e-05
-1.44608e-05
-1.43302e-05
-1.4191e-05
-1.40417e-05
-1.38803e-05
-1.37047e-05
-1.35127e-05
-1.33018e-05
-1.30697e-05
-1.28142e-05
-1.25334e-05
-1.22259e-05
-1.18912e-05
-1.15295e-05
-1.11419e-05
-1.07308e-05
-1.02993e-05
-9.85116e-06
-9.39085e-06
-8.92434e-06
-8.44884e-06
-8.0148e-06
-1.54989e-05
-1.54013e-05
-1.52933e-05
-1.51868e-05
-1.50795e-05
-1.49689e-05
-1.48539e-05
-1.47335e-05
-1.46065e-05
-1.44717e-05
-1.43273e-05
-1.41715e-05
-1.40023e-05
-1.38172e-05
-1.3614e-05
-1.33902e-05
-1.31434e-05
-1.28717e-05
-1.25733e-05
-1.22473e-05
-1.18937e-05
-1.15131e-05
-1.11074e-05
-1.06793e-05
-1.02325e-05
-9.7713e-06
-9.3006e-06
-8.82605e-06
-8.34211e-06
-7.90191e-06
-1.56501e-05
-1.55505e-05
-1.54406e-05
-1.53323e-05
-1.52233e-05
-1.51108e-05
-1.49936e-05
-1.48704e-05
-1.47401e-05
-1.4601e-05
-1.44512e-05
-1.42886e-05
-1.41111e-05
-1.39162e-05
-1.37013e-05
-1.34641e-05
-1.32023e-05
-1.29139e-05
-1.25978e-05
-1.22534e-05
-1.1881e-05
-1.1482e-05
-1.10587e-05
-1.06146e-05
-1.01535e-05
-9.68036e-06
-9.20049e-06
-8.71758e-06
-8.22798e-06
-7.78149e-06
-1.5786e-05
-1.56848e-05
-1.55733e-05
-1.54635e-05
-1.5353e-05
-1.52388e-05
-1.51194e-05
-1.49936e-05
-1.48599e-05
-1.47163e-05
-1.45609e-05
-1.43914e-05
-1.42053e-05
-1.40001e-05
-1.37732e-05
-1.35221e-05
-1.32449e-05
-1.29398e-05
-1.26059e-05
-1.22432e-05
-1.18524e-05
-1.14355e-05
-1.09955e-05
-1.05362e-05
-1.00619e-05
-9.57808e-06
-9.09001e-06
-8.59788e-06
-8.10588e-06
-7.65365e-06
-1.5905e-05
-1.58025e-05
-1.56896e-05
-1.55786e-05
-1.54668e-05
-1.53511e-05
-1.52298e-05
-1.51015e-05
-1.49643e-05
-1.48162e-05
-1.4655e-05
-1.44782e-05
-1.42832e-05
-1.40674e-05
-1.3828e-05
-1.35629e-05
-1.327e-05
-1.29481e-05
-1.25965e-05
-1.22157e-05
-1.18071e-05
-1.13731e-05
-1.09172e-05
-1.04437e-05
-9.95742e-06
-9.46408e-06
-8.96782e-06
-8.46839e-06
-7.97529e-06
-7.51751e-06
-1.60055e-05
-1.59019e-05
-1.5788e-05
-1.56761e-05
-1.55633e-05
-1.54463e-05
-1.53232e-05
-1.51923e-05
-1.50517e-05
-1.4899e-05
-1.47319e-05
-1.45475e-05
-1.43434e-05
-1.41166e-05
-1.38645e-05
-1.35851e-05
-1.32765e-05
-1.29377e-05
-1.25687e-05
-1.21702e-05
-1.17444e-05
-1.12941e-05
-1.08233e-05
-1.03367e-05
-9.83971e-06
-9.33798e-06
-8.83308e-06
-8.32971e-06
-7.83553e-06
-7.37277e-06
-1.60856e-05
-1.59814e-05
-1.58668e-05
-1.57543e-05
-1.56407e-05
-1.55226e-05
-1.53978e-05
-1.52645e-05
-1.51204e-05
-1.49631e-05
-1.47898e-05
-1.45978e-05
-1.43842e-05
-1.41462e-05
-1.38813e-05
-1.35874e-05
-1.32631e-05
-1.29077e-05
-1.25215e-05
-1.2106e-05
-1.16637e-05
-1.1198e-05
-1.07134e-05
-1.0215e-05
-9.70847e-06
-9.19896e-06
-8.68655e-06
-8.18113e-06
-7.68625e-06
-7.2192e-06
-1.61438e-05
-1.60392e-05
-1.59243e-05
-1.58115e-05
-1.56974e-05
-1.55784e-05
-1.54522e-05
-1.53165e-05
-1.5169e-05
-1.50069e-05
-1.48274e-05
-1.46275e-05
-1.44043e-05
-1.41549e-05
-1.3877e-05
-1.35687e-05
-1.32288e-05
-1.2857e-05
-1.24542e-05
-1.20223e-05
-1.15644e-05
-1.10844e-05
-1.05872e-05
-1.00782e-05
-9.56342e-06
-9.04614e-06
-8.52904e-06
-8.02211e-06
-7.52714e-06
-7.05655e-06
-1.61785e-05
-1.60738e-05
-1.5959e-05
-1.58461e-05
-1.57319e-05
-1.56122e-05
-1.54846e-05
-1.53466e-05
-1.51957e-05
-1.50288e-05
-1.4843e-05
-1.46351e-05
-1.44021e-05
-1.41414e-05
-1.38505e-05
-1.35278e-05
-1.31725e-05
-1.27849e-05
-1.23661e-05
-1.19186e-05
-1.1446e-05
-1.09528e-05
-1.04442e-05
-9.92609e-06
-9.40405e-06
-8.87949e-06
-8.36021e-06
-7.85256e-06
-7.35813e-06
-6.88465e-06
-1.6188e-05
-1.60837e-05
-1.59692e-05
-1.58567e-05
-1.57425e-05
-1.56224e-05
-1.54936e-05
-1.53534e-05
-1.51991e-05
-1.50274e-05
-1.48352e-05
-1.46193e-05
-1.43766e-05
-1.41044e-05
-1.38006e-05
-1.34638e-05
-1.30935e-05
-1.26905e-05
-1.22564e-05
-1.17943e-05
-1.13082e-05
-1.08031e-05
-1.02844e-05
-9.7584e-06
-9.22959e-06
-8.70006e-06
-8.17977e-06
-7.67195e-06
-7.17902e-06
-6.70337e-06
-5.98189e-06
-5.55265e-06
-5.07987e-06
-4.56366e-06
-4.01389e-06
-3.43997e-06
-2.85105e-06
-2.26512e-06
-1.69368e-06
-1.15088e-06
-6.49164e-07
-1.99011e-07
1.90894e-07
5.15085e-07
7.71616e-07
9.61844e-07
1.09014e-06
1.16333e-06
1.18987e-06
1.17904e-06
1.14006e-06
1.08143e-06
1.01045e-06
9.32997e-07
8.53507e-07
7.75132e-07
6.99958e-07
6.29243e-07
5.63643e-07
5.03395e-07
4.48462e-07
3.98639e-07
3.53624e-07
3.13076e-07
2.76638e-07
2.4396e-07
2.14707e-07
1.88562e-07
1.65232e-07
1.44446e-07
1.25954e-07
1.09528e-07
9.49616e-08
8.20671e-08
7.06734e-08
6.06301e-08
5.17898e-08
4.40403e-08
3.72381e-08
3.13273e-08
2.61267e-08
2.16878e-08
1.7702e-08
1.44516e-08
1.13032e-08
9.03729e-09
6.31932e-09
4.90595e-09
2.18614e-09
2.59681e-09
-6.01224e-06
-5.58056e-06
-5.10811e-06
-4.59145e-06
-4.04108e-06
-3.4659e-06
-2.87672e-06
-2.28917e-06
-1.71617e-06
-1.17169e-06
-6.68164e-07
-2.16129e-07
1.75684e-07
5.01772e-07
7.6014e-07
9.52102e-07
1.082e-06
1.15661e-06
1.18441e-06
1.17466e-06
1.13659e-06
1.07871e-06
1.00833e-06
9.31358e-07
8.52247e-07
7.74168e-07
6.99221e-07
6.2868e-07
5.63213e-07
5.03065e-07
4.48209e-07
3.98444e-07
3.53474e-07
3.1296e-07
2.76549e-07
2.43891e-07
2.14653e-07
1.88521e-07
1.652e-07
1.44421e-07
1.25934e-07
1.09512e-07
9.49488e-08
8.20568e-08
7.06649e-08
6.06234e-08
5.17841e-08
4.40359e-08
3.72337e-08
3.13239e-08
2.61237e-08
2.16851e-08
1.77001e-08
1.445e-08
1.13018e-08
9.0358e-09
6.31897e-09
4.90511e-09
2.18652e-09
2.59547e-09
-6.07222e-06
-5.63555e-06
-5.16383e-06
-4.64636e-06
-4.09493e-06
-3.51778e-06
-2.92701e-06
-2.33678e-06
-1.76079e-06
-1.21302e-06
-7.05936e-07
-2.50189e-07
1.45397e-07
4.75243e-07
7.37256e-07
9.32663e-07
1.06573e-06
1.14321e-06
1.17351e-06
1.16591e-06
1.12965e-06
1.07326e-06
1.00409e-06
9.2808e-07
8.49727e-07
7.72238e-07
6.97747e-07
6.27554e-07
5.62351e-07
5.02406e-07
4.47703e-07
3.98055e-07
3.53175e-07
3.12729e-07
2.7637e-07
2.43752e-07
2.14546e-07
1.88437e-07
1.65135e-07
1.4437e-07
1.25894e-07
1.0948e-07
9.49228e-08
8.20357e-08
7.06477e-08
6.06093e-08
5.17722e-08
4.40259e-08
3.72251e-08
3.13166e-08
2.61175e-08
2.16798e-08
1.76957e-08
1.44462e-08
1.12989e-08
9.03297e-09
6.31786e-09
4.90257e-09
2.18689e-09
2.59283e-09
-6.16027e-06
-5.71594e-06
-5.24554e-06
-4.72695e-06
-4.17419e-06
-3.59429e-06
-3.00089e-06
-2.407e-06
-1.82674e-06
-1.27418e-06
-7.61913e-07
-3.00733e-07
1.00395e-07
4.3578e-07
7.03176e-07
9.03684e-07
1.04146e-06
1.12318e-06
1.15721e-06
1.15282e-06
1.11926e-06
1.06509e-06
9.97734e-07
9.23167e-07
8.4595e-07
7.69345e-07
6.95535e-07
6.25864e-07
5.61059e-07
5.01416e-07
4.46944e-07
3.97471e-07
3.52725e-07
3.12381e-07
2.76101e-07
2.43544e-07
2.14384e-07
1.88311e-07
1.65037e-07
1.44292e-07
1.25832e-07
1.09431e-07
9.48837e-08
8.2004e-08
7.06218e-08
6.05879e-08
5.17542e-08
4.40108e-08
3.72121e-08
3.13055e-08
2.6108e-08
2.16718e-08
1.7689e-08
1.44404e-08
1.12945e-08
9.02864e-09
6.31618e-09
4.89878e-09
2.18749e-09
2.58877e-09
-6.27421e-06
-5.81932e-06
-5.35119e-06
-4.83127e-06
-4.27718e-06
-3.69363e-06
-3.09698e-06
-2.49854e-06
-1.91287e-06
-1.35422e-06
-8.35295e-07
-3.67109e-07
4.11995e-08
3.83786e-07
6.58206e-07
8.65388e-07
1.00935e-06
1.09664e-06
1.1356e-06
1.13544e-06
1.10545e-06
1.05424e-06
9.89278e-07
9.16626e-07
8.4092e-07
7.65491e-07
6.92588e-07
6.23611e-07
5.59336e-07
5.00097e-07
4.45931e-07
3.96692e-07
3.52124e-07
3.11918e-07
2.75743e-07
2.43267e-07
2.14169e-07
1.88143e-07
1.64905e-07
1.44189e-07
1.25751e-07
1.09366e-07
9.48314e-08
8.19616e-08
7.0587e-08
6.05592e-08
5.17302e-08
4.39905e-08
3.71948e-08
3.12907e-08
2.60954e-08
2.1661e-08
1.768e-08
1.44326e-08
1.12887e-08
9.02284e-09
6.31389e-09
4.89375e-09
2.1883e-09
2.58328e-09
-6.41149e-06
-5.94233e-06
-5.47833e-06
-4.9568e-06
-4.40058e-06
-3.81477e-06
-3.2136e-06
-2.60982e-06
-2.01781e-06
-1.45193e-06
-9.25077e-07
-4.48496e-07
-3.15306e-08
3.19777e-07
6.0274e-07
8.18069e-07
9.696e-07
1.06375e-06
1.10877e-06
1.11384e-06
1.08827e-06
1.04072e-06
9.78736e-07
9.08467e-07
8.34641e-07
7.60677e-07
6.88905e-07
6.20795e-07
5.57182e-07
4.98446e-07
4.44665e-07
3.95718e-07
3.51374e-07
3.11339e-07
2.75295e-07
2.4292e-07
2.13899e-07
1.87933e-07
1.64741e-07
1.4406e-07
1.25649e-07
1.09285e-07
9.4766e-08
8.19085e-08
7.05435e-08
6.05233e-08
5.17001e-08
4.39652e-08
3.71731e-08
3.12722e-08
2.60796e-08
2.16476e-08
1.76687e-08
1.44228e-08
1.12813e-08
9.01555e-09
6.311e-09
4.88751e-09
2.1893e-09
2.57637e-09
-6.57031e-06
-6.08017e-06
-5.62431e-06
-5.10085e-06
-4.54285e-06
-3.95431e-06
-3.34856e-06
-2.73894e-06
-2.1399e-06
-1.5659e-06
-1.03007e-06
-5.43924e-07
-1.17012e-07
2.44369e-07
5.37247e-07
7.62076e-07
9.22469e-07
1.02468e-06
1.07683e-06
1.0881e-06
1.06777e-06
1.02457e-06
9.6613e-07
8.98702e-07
8.27119e-07
7.54906e-07
6.84488e-07
6.17417e-07
5.54597e-07
4.96465e-07
4.43144e-07
3.94549e-07
3.50473e-07
3.10644e-07
2.74757e-07
2.42503e-07
2.13576e-07
1.87682e-07
1.64544e-07
1.43905e-07
1.25526e-07
1.09187e-07
9.46875e-08
8.18448e-08
7.04913e-08
6.04801e-08
5.16639e-08
4.39346e-08
3.7147e-08
3.12499e-08
2.60606e-08
2.16314e-08
1.76551e-08
1.4411e-08
1.12724e-08
9.0068e-09
6.30747e-09
4.8801e-09
2.19046e-09
2.56806e-09
-6.75047e-06
-6.22752e-06
-5.78552e-06
-5.26063e-06
-4.701e-06
-4.10973e-06
-3.49949e-06
-2.88382e-06
-2.27732e-06
-1.69457e-06
-1.14896e-06
-6.52304e-07
-2.14362e-07
1.58261e-07
4.62266e-07
6.9781e-07
8.68247e-07
9.79625e-07
1.03995e-06
1.0583e-06
1.044e-06
1.00582e-06
9.5148e-07
8.87341e-07
8.18361e-07
7.48182e-07
6.79337e-07
6.13475e-07
5.51579e-07
4.94153e-07
4.41369e-07
3.93184e-07
3.49422e-07
3.09832e-07
2.7413e-07
2.42018e-07
2.13199e-07
1.87388e-07
1.64315e-07
1.43725e-07
1.25383e-07
1.09073e-07
9.4596e-08
8.17705e-08
7.04304e-08
6.04296e-08
5.16217e-08
4.3899e-08
3.71167e-08
3.12239e-08
2.60385e-08
2.16124e-08
1.76393e-08
1.43973e-08
1.1262e-08
8.99657e-09
6.3033e-09
4.87154e-09
2.19175e-09
2.55835e-09
-6.94626e-06
-6.38642e-06
-5.95484e-06
-5.43298e-06
-4.87196e-06
-4.27831e-06
-3.66386e-06
-3.04222e-06
-2.4281e-06
-1.83624e-06