/*--------------------------------*- C++ -*----------------------------------*\
| =========                 |                                                 |
| \\      /  F ield         | foam-extend: Open Source CFD                    |
|  \\    /   O peration     | Version:     4.0                                |
|   \\  /    A nd           | Web:         http://www.foam-extend.org         |
|    \\/     M anipulation  |                                                 |
\*---------------------------------------------------------------------------*/
FoamFile
{
    version     2.0;
    format      ascii;
    class       surfaceScalarField;
    location    "40";
    object      phi;
}
// * * * * * * * * * * * * * * * * * * * * * * * * * * * * * * * * * * * * * //

dimensions      [0 3 -1 0 0 0 0];

internalField   nonuniform List<scalar> 
71520
(
-2.73621e-10
2.71742e-10
1.87869e-12
-1.09789e-09
8.18593e-10
5.67762e-12
-2.50842e-09
1.40079e-09
9.73588e-12
-4.53963e-09
2.01717e-09
1.40397e-11
-7.22421e-09
2.66601e-09
1.85692e-11
-1.05925e-08
3.34496e-09
2.32985e-11
-1.46717e-08
4.05105e-09
2.81945e-11
-1.94855e-08
4.78058e-09
3.32166e-11
-2.50528e-08
5.52902e-09
3.83162e-11
-3.13872e-08
6.29089e-09
4.34356e-11
-3.84953e-08
7.05961e-09
4.85077e-11
-4.63761e-08
7.82733e-09
5.34546e-11
-5.50189e-08
8.58466e-09
5.81877e-11
-6.4402e-08
9.32047e-09
6.2606e-11
-7.44902e-08
1.00216e-08
6.6596e-11
-8.52326e-08
1.06724e-08
7.00295e-11
-9.65596e-08
1.12542e-08
7.27625e-11
-1.08379e-07
1.1745e-08
7.46331e-11
-1.20573e-07
1.21184e-08
7.54591e-11
-1.32991e-07
1.23431e-08
7.50361e-11
-1.45446e-07
1.2382e-08
7.3133e-11
-1.57707e-07
1.21911e-08
6.94916e-11
-1.6949e-07
1.17193e-08
6.38255e-11
-1.80453e-07
1.09069e-08
5.58229e-11
-1.90184e-07
9.68566e-09
4.5164e-11
-1.98193e-07
7.97812e-09
3.15976e-11
-2.03941e-07
5.73291e-09
1.43324e-11
-2.06758e-07
2.82371e-09
-6.22884e-12
-2.05869e-07
-8.58344e-10
-3.10416e-11
-5.43405e-09
-2.00374e-07
-6.0342e-11
-2.69684e-10
5.41427e-10
-1.08228e-09
1.63119e-09
-2.47309e-09
2.79159e-09
-4.47621e-09
4.0203e-09
-7.124e-09
5.3138e-09
-1.04465e-08
6.66742e-09
-1.44706e-08
8.07515e-09
-1.92195e-08
9.52952e-09
-2.47119e-08
1.10214e-08
-3.09607e-08
1.25397e-08
-3.79723e-08
1.40712e-08
-4.57449e-08
1.56e-08
-5.42673e-08
1.71071e-08
-6.35169e-08
1.857e-08
-7.34576e-08
1.99624e-08
-8.40377e-08
2.12524e-08
-9.51861e-08
2.24027e-08
-1.0681e-07
2.33686e-08
-1.18789e-07
2.40972e-08
-1.30971e-07
2.45256e-08
-1.43168e-07
2.45789e-08
-1.55146e-07
2.41691e-08
-1.6662e-07
2.31933e-08
-1.77245e-07
2.15323e-08
-1.8661e-07
1.905e-08
-1.94226e-07
1.55947e-08
-1.9953e-07
1.10363e-08
-2.01862e-07
5.15586e-09
-2.00457e-07
-2.26356e-09
-1.1483e-08
-1.94408e-07
-2.61908e-10
8.03335e-10
-1.05144e-09
2.42072e-09
-2.40323e-09
4.14338e-09
-4.35074e-09
5.96781e-09
-6.9257e-09
7.88876e-09
-1.01574e-08
9.89916e-09
-1.40723e-08
1.199e-08
-1.86926e-08
1.41499e-08
-2.40364e-08
1.63651e-08
-3.01156e-08
1.8619e-08
-3.69357e-08
2.08912e-08
-4.44936e-08
2.31579e-08
-5.27769e-08
2.53903e-08
-6.17613e-08
2.75545e-08
-7.14093e-08
2.96103e-08
-8.16667e-08
3.15099e-08
-9.24605e-08
3.31965e-08
-1.03695e-07
3.46029e-08
-1.15247e-07
3.5649e-08
-1.26961e-07
3.624e-08
-1.38645e-07
3.62632e-08
-1.50062e-07
3.5586e-08
-1.60922e-07
3.40537e-08
-1.70878e-07
3.14876e-08
-1.79512e-07
2.76838e-08
-1.86337e-07
2.24199e-08
-1.90774e-07
1.54738e-08
-1.92158e-07
6.5397e-09
-1.89734e-07
-4.6877e-09
-1.86253e-08
-1.82592e-07
-2.50503e-10
1.05384e-09
-1.00617e-09
3.17639e-09
-2.30064e-09
5.43785e-09
-4.1664e-09
7.83357e-09
-6.6342e-09
1.03566e-08
-9.7324e-09
1.29974e-08
-1.34862e-08
1.57438e-08
-1.79171e-08
1.85808e-08
-2.30417e-08
2.14897e-08
-2.88707e-08
2.44479e-08
-3.54079e-08
2.74284e-08
-4.26487e-08
3.03987e-08
-5.05785e-08
3.33202e-08
-5.91711e-08
3.61471e-08
-6.8386e-08
3.88252e-08
-7.81663e-08
4.12901e-08
-8.84354e-08
4.34656e-08
-9.90936e-08
4.5261e-08
-1.10014e-07
4.65689e-08
-1.21035e-07
4.7262e-08
-1.31961e-07
4.71891e-08
-1.42549e-07
4.6173e-08
-1.52502e-07
4.4007e-08
-1.61467e-07
4.04524e-08
-1.69022e-07
3.5239e-08
-1.74675e-07
2.80731e-08
-1.77836e-07
1.86351e-08
-1.77833e-07
6.53638e-09
-1.73915e-07
-8.60531e-09
-2.73691e-08
-1.65172e-07
-2.35771e-10
1.28961e-09
-9.4765e-10
3.88827e-09
-2.16794e-09
6.65814e-09
-3.92781e-09
9.59344e-09
-6.25668e-09
1.26854e-08
-9.18155e-09
1.59222e-08
-1.27263e-08
1.92886e-08
-1.69108e-08
2.27653e-08
-2.17501e-08
2.6329e-08
-2.72531e-08
2.9951e-08
-3.34217e-08
3.3597e-08
-4.02489e-08
3.72259e-08
-4.77176e-08
4.07889e-08
-5.57985e-08
4.42279e-08
-6.44477e-08
4.74744e-08
-7.36044e-08
5.04469e-08
-8.31877e-08
5.30489e-08
-9.30928e-08
5.51661e-08
-1.03187e-07
5.66629e-08
-1.13304e-07
5.73788e-08
-1.23238e-07
5.71241e-08
-1.32742e-07
5.56762e-08
-1.41511e-07
5.2776e-08
-1.49184e-07
4.81258e-08
-1.55335e-07
4.13897e-08
-1.59459e-07
3.2197e-08
-1.6096e-07
2.0136e-08
-1.59158e-07
4.735e-09
-1.53309e-07
-1.44544e-08
-3.81852e-08
-1.42493e-07
-2.18097e-10
1.50771e-09
-8.77371e-10
4.54754e-09
-2.00845e-09
7.78922e-09
-3.64081e-09
1.12258e-08
-5.8022e-09
1.48468e-08
-8.51789e-09
1.86379e-08
-1.181e-08
2.25806e-08
-1.56964e-08
2.66518e-08
-2.01903e-08
3.08228e-08
-2.52982e-08
3.50589e-08
-3.10194e-08
3.93182e-08
-3.73443e-08
4.35508e-08
-4.42524e-08
4.7697e-08
-5.17108e-08
5.16863e-08
-5.96715e-08
5.54351e-08
-6.80689e-08
5.88443e-08
-7.68167e-08
6.17967e-08
-8.58042e-08
6.41535e-08
-9.48916e-08
6.57503e-08
-1.03906e-07
6.63928e-08
-1.12634e-07
6.58521e-08
-1.20817e-07
6.386e-08
-1.28147e-07
6.01052e-08
-1.34252e-07
5.42312e-08
-1.38697e-07
4.58347e-08
-1.40965e-07
3.44655e-08
-1.40457e-07
1.96276e-08
-1.36484e-07
7.61967e-10
-1.28312e-07
-2.26262e-08
-5.15032e-08
-1.14994e-07
-1.97929e-10
1.70564e-09
-7.97079e-10
5.14669e-09
-1.82605e-09
8.81819e-09
-3.31229e-09
1.2712e-08
-5.28146e-09
1.6816e-08
-7.75675e-09
2.11132e-08
-1.0758e-08
2.55819e-08
-1.4301e-08
3.01948e-08
-1.83962e-08
3.49179e-08
-2.30475e-08
3.97102e-08
-2.82512e-08
4.4522e-08
-3.39943e-08
4.92939e-08
-4.02525e-08
5.39552e-08
-4.69886e-08
5.84224e-08
-5.41496e-08
6.25962e-08
-6.16646e-08
6.63593e-08
-6.94411e-08
6.95732e-08
-7.73613e-08
7.20737e-08
-8.52781e-08
7.3667e-08
-9.30096e-08
7.41243e-08
-1.00335e-07
7.31772e-08
-1.06986e-07
7.05115e-08
-1.12645e-07
6.57643e-08
-1.16933e-07
5.85189e-08
-1.19401e-07
4.83031e-08
-1.19525e-07
3.45886e-08
-1.16695e-07
1.67977e-08
-1.10234e-07
-5.69877e-09
-9.94027e-08
-3.34575e-08
-6.77138e-08
-8.3192e-08
-1.75768e-10
1.8814e-09
-7.08728e-10
5.67965e-09
-1.6251e-09
9.73456e-09
-2.94993e-09
1.40369e-08
-4.70644e-09
1.85725e-08
-6.91531e-09
2.33221e-08
-9.59381e-09
2.82604e-08
-1.27549e-08
3.33559e-08
-1.6406e-08
3.85691e-08
-2.05481e-08
4.38523e-08
-2.51738e-08
4.91476e-08
-3.0266e-08
5.43861e-08
-3.57964e-08
5.94856e-08
-4.17226e-08
6.43486e-08
-4.79863e-08
6.88599e-08
-5.45104e-08
7.28834e-08
-6.11954e-08
7.62582e-08
-6.79159e-08
7.87942e-08
-7.45164e-08
8.02676e-08
-8.08064e-08
8.04143e-08
-8.65553e-08
7.89261e-08
-9.14872e-08
7.54434e-08
-9.52731e-08
6.95501e-08
-9.75232e-08
6.0769e-08
-9.77796e-08
4.85595e-08
-9.55085e-08
3.23174e-08
-9.0096e-08
1.13853e-08
-8.08602e-08
-1.49346e-08
-6.7111e-08
-4.72066e-08
-8.71122e-08
-4.77127e-08
-1.52149e-10
2.03355e-09
-6.14399e-10
6.1419e-09
-1.41025e-09
1.05304e-08
-2.56198e-09
1.51886e-08
-4.08997e-09
2.01005e-08
-6.01199e-09
2.52441e-08
-8.34228e-09
3.05907e-08
-1.10906e-08
3.61042e-08
-1.4261e-08
4.17395e-08
-1.78506e-08
4.74419e-08
-2.18481e-08
5.31452e-08
-2.62321e-08
5.87701e-08
-3.09692e-08
6.42226e-08
-3.60116e-08
6.9391e-08
-4.1295e-08
7.41433e-08
-4.67355e-08
7.83238e-08
-5.2226e-08
8.17487e-08
-5.7633e-08
8.42012e-08
-6.27921e-08
8.54266e-08
-6.75038e-08
8.5126e-08
-7.15283e-08
8.29506e-08
-7.45792e-08
7.84943e-08
-7.63169e-08
7.12879e-08
-7.6342e-08
6.07941e-08
-7.41879e-08
4.64054e-08
-6.93151e-08
2.74447e-08
-6.11039e-08
3.17406e-09
-4.88499e-08
-2.71886e-08
-3.19145e-08
-6.4142e-08
-1.09471e-07
-9.55589e-09
-1.27617e-10
2.16117e-09
-5.16223e-10
6.53051e-09
-1.18627e-09
1.12005e-08
-2.15689e-09
1.61592e-08
-3.44526e-09
2.13889e-08
-5.06581e-09
2.68646e-08
-7.02932e-09
3.25542e-08
-9.34188e-09
3.84167e-08
-1.20037e-08
4.44013e-08
-1.50077e-08
5.04459e-08
-1.8338e-08
5.64755e-08
-2.19684e-08
6.24005e-08
-2.58599e-08
6.81142e-08
-2.99591e-08
7.34902e-08
-3.41948e-08
7.83791e-08
-3.84758e-08
8.26048e-08
-4.2687e-08
8.59599e-08
-4.66865e-08
8.82007e-08
-5.03009e-08
8.9041e-08
-5.33212e-08
8.81463e-08
-5.54974e-08
8.51268e-08
-5.65327e-08
7.95296e-08
-5.60779e-08
7.0833e-08
-5.37242e-08
5.84405e-08
-4.89977e-08
4.16788e-08
-4.13547e-08
1.98017e-08
-3.01847e-08
-7.99591e-09
-1.47894e-08
-4.25838e-08
5.88403e-09
-8.48155e-08
-1.35274e-07
3.16871e-08
-1.0271e-10
2.26388e-09
-4.16308e-10
6.84411e-09
-9.57871e-10
1.1742e-08
-1.74306e-09
1.69444e-08
-2.78544e-09
2.24312e-08
-4.09572e-09
2.81749e-08
-5.68077e-09
3.41393e-08
-7.54259e-09
4.02785e-08
-9.67703e-09
4.65357e-08
-1.20724e-08
5.28412e-08
-1.47078e-08
5.91109e-08
-1.75516e-08
6.52443e-08
-2.0559e-08
7.11216e-08
-2.36701e-08
7.66012e-08
-2.68067e-08
8.15156e-08
-2.98695e-08
8.56677e-08
-3.27357e-08
8.88261e-08
-3.52541e-08
9.07191e-08
-3.72421e-08
9.1029e-08
-3.84808e-08
8.9385e-08
-3.87101e-08
8.53561e-08
-3.76234e-08
7.8443e-08
-3.48621e-08
6.80717e-08
-3.00097e-08
5.3588e-08
-2.25864e-08
3.42556e-08
-1.20444e-08
9.25968e-09
2.23417e-09
-2.22745e-08
2.0911e-08
-6.12606e-08
4.47679e-08
-1.08672e-07
-1.6516e-07
7.46541e-08
-7.79357e-11
2.34181e-09
-3.16652e-10
7.08282e-09
-7.29563e-10
1.21549e-08
-1.32852e-09
1.75434e-08
-2.12314e-09
2.32259e-08
-3.11998e-09
2.91717e-08
-4.32161e-09
3.53409e-08
-5.72549e-09
4.16824e-08
-7.32268e-09
4.81329e-08
-9.09635e-09
5.46149e-08
-1.10202e-08
6.10348e-08
-1.30569e-08
6.72809e-08
-1.51552e-08
7.322e-08
-1.72481e-08
7.86942e-08
-1.92498e-08
8.35173e-08
-2.10535e-08
8.74713e-08
-2.25272e-08
9.02998e-08
-2.35107e-08
9.17026e-08
-2.38118e-08
9.13301e-08
-2.3202e-08
8.87752e-08
-2.14113e-08
8.35654e-08
-1.81237e-08
7.51554e-08
-1.2972e-08
6.29199e-08
-5.53306e-09
4.61491e-08
4.67688e-09
2.40456e-08
1.82053e-08
-4.26869e-09
3.56647e-08
-3.9734e-08
5.77431e-08
-8.3339e-08
8.51291e-08
-1.36058e-07
-1.98784e-07
1.18753e-07
-5.37455e-11
2.39556e-09
-2.19047e-10
7.24812e-09
-5.05411e-10
1.24413e-08
-9.20605e-10
1.79586e-08
-1.46996e-09
2.37752e-08
-2.15552e-09
2.98573e-08
-2.97512e-09
3.61605e-08
-3.92124e-09
4.26285e-08
-4.97973e-09
4.91914e-08
-6.1283e-09
5.57635e-08
-7.33491e-09
6.22414e-08
-8.55578e-09
6.85018e-08
-9.73286e-09
7.4397e-08
-1.07914e-08
7.97527e-08
-1.16381e-08
8.4364e-08
-1.21575e-08
8.79907e-08
-1.22087e-08
9.0351e-08
-1.16225e-08
9.11165e-08
-1.01975e-08
8.99051e-08
-7.69517e-09
8.62728e-08
-3.83595e-09
7.97062e-08
1.70502e-09
6.96144e-08
9.30244e-09
5.53225e-08
1.93846e-08
3.60669e-08
3.24374e-08
1.09929e-08
4.9006e-08
-2.08373e-08
6.96987e-08
-6.04267e-08
9.5186e-08
-1.08826e-07
1.26169e-07
-1.67041e-07
-2.3613e-07
1.63514e-07
-3.05117e-11
2.42607e-09
-1.25e-10
7.34261e-09
-2.88875e-10
1.26052e-08
-5.256e-10
1.81953e-08
-8.35965e-10
2.40856e-08
-1.21721e-09
3.02386e-08
-1.66202e-09
3.66053e-08
-2.15738e-09
4.31239e-08
-2.68352e-09
4.97176e-08
-3.21262e-09
5.62926e-08
-3.70637e-09
6.27352e-08
-4.11362e-09
6.8909e-08
-4.36873e-09
7.46521e-08
-4.38953e-09
7.97735e-08
-4.07458e-09
8.40491e-08
-3.29973e-09
8.72159e-08
-1.91581e-09
8.8967e-08
2.55654e-10
8.89451e-08
3.42622e-09
8.67346e-08
7.84387e-09
8.18552e-08
1.37972e-08
7.37528e-08
2.16192e-08
6.17924e-08
3.16909e-08
4.52508e-08
4.44448e-08
2.3313e-08
6.0367e-08
-4.92928e-09
7.99982e-08
-4.04685e-08
1.03937e-07
-8.43654e-08
1.32839e-07
-1.37728e-07
1.67396e-07
-2.01599e-07
-2.77162e-07
2.08428e-07
-8.53703e-12
2.43461e-09
-3.57671e-11
7.36984e-09
-8.28326e-11
1.26522e-08
-1.48662e-10
1.82611e-08
-2.29278e-10
2.41662e-08
-3.16938e-10
3.03262e-08
-3.99113e-10
3.66875e-08
-4.57267e-10
4.3182e-08
-4.65448e-10
4.97258e-08
-3.88697e-10
5.62158e-08
-1.81326e-10
6.25278e-08
2.14803e-10
6.85129e-08
8.72376e-10
7.39946e-08
1.88102e-09
7.87649e-08
3.35052e-09
8.25796e-08
5.41364e-09
8.51527e-08
8.22919e-09
8.61515e-08
1.19853e-08
8.5189e-08
1.69028e-08
8.18171e-08
2.32391e-08
7.55189e-08
3.12914e-08
6.57005e-08
4.14004e-08
5.16835e-08
5.39525e-08
3.26987e-08
6.9383e-08
7.88245e-09
8.81759e-08
-2.37221e-08
1.10865e-07
-6.31575e-08
1.38035e-07
-1.11536e-07
1.70322e-07
-1.70015e-07
2.08399e-07
-2.39675e-07
-3.21805e-07
2.53043e-07
1.17536e-11
2.42285e-09
4.71244e-11
7.33447e-09
1.09429e-10
1.25899e-08
2.04494e-10
1.81661e-08
3.41353e-10
2.40293e-08
5.33117e-10
3.01345e-08
7.98002e-10
3.64226e-08
1.16055e-09
4.28195e-08
1.6531e-09
4.92332e-08
2.31742e-09
5.55515e-08
3.2062e-09
6.1639e-08
4.38493e-09
6.73342e-08
5.93411e-09
7.24454e-08
7.95178e-09
7.67472e-08
1.05567e-08
7.99746e-08
1.38907e-08
8.18188e-08
1.81217e-08
8.19204e-08
2.34474e-08
7.98632e-08
3.00981e-08
7.51664e-08
3.83403e-08
6.72767e-08
4.84794e-08
5.55613e-08
6.08631e-08
3.92998e-08
7.58825e-08
1.76793e-08
9.39737e-08
-1.02088e-08
1.15617e-07
-4.53651e-08
1.41336e-07
-8.8877e-08
1.71699e-07
-1.41899e-07
2.07315e-07
-2.05631e-07
2.48827e-07
-2.81187e-07
-3.69949e-07
2.96971e-07
3.02011e-11
2.39265e-09
1.22979e-10
7.24169e-09
2.86243e-10
1.24267e-08
5.3073e-10
1.79216e-08
8.70731e-10
2.36893e-08
1.32497e-09
2.96802e-08
1.91764e-09
3.58299e-08
2.67964e-09
4.20575e-08
3.64995e-09
4.82629e-08
4.87723e-09
5.43242e-08
6.4215e-09
6.00948e-08
8.35601e-09
6.53996e-08
1.07695e-08
7.00319e-08
1.37689e-08
7.37478e-08
1.74819e-08
7.62617e-08
2.20594e-08
7.72413e-08
2.7679e-08
7.63008e-08
3.45478e-08
7.29944e-08
4.29056e-08
6.68086e-08
5.30276e-08
5.71548e-08
6.52273e-08
4.33616e-08
7.98585e-08
2.46686e-08
9.73162e-08
2.2157e-10
1.18036e-07
-3.09281e-08
1.42491e-07
-6.98205e-08
1.71195e-07
-1.17581e-07
2.04691e-07
-1.75396e-07
2.43557e-07
-2.44497e-07
2.88393e-07
-3.26023e-07
-4.21449e-07
3.39892e-07
4.67706e-11
2.34588e-09
1.91558e-10
7.09691e-09
4.4693e-10
1.21713e-08
8.28645e-10
1.75399e-08
1.35639e-09
2.31616e-08
2.05465e-09
2.8982e-08
2.95379e-09
3.49308e-08
4.09124e-09
4.09201e-08
5.5129e-09
4.68412e-08
7.27469e-09
5.25624e-08
9.44426e-09
5.79252e-08
1.21029e-08
6.2741e-08
1.5348e-08
6.67868e-08
1.92956e-08
6.98002e-08
2.40823e-08
7.1475e-08
2.98687e-08
7.14549e-08
3.68419e-08
6.93276e-08
4.52185e-08
6.46178e-08
5.52477e-08
5.67794e-08
6.72136e-08
4.51889e-08
8.14371e-08
2.91381e-08
9.82777e-08
7.82799e-09
1.18132e-07
-1.9633e-08
1.41434e-07
-5.42296e-08
1.6865e-07
-9.70364e-08
2.00275e-07
-1.49206e-07
2.36829e-07
-2.11949e-07
2.78845e-07
-2.86513e-07
3.26871e-07
-3.7405e-07
-4.76126e-07
3.81549e-07
6.14424e-11
2.28444e-09
2.5277e-10
6.90558e-09
5.91239e-10
1.18328e-08
1.09769e-09
1.70334e-08
1.79728e-09
2.2462e-08
2.72039e-09
2.80588e-08
3.9037e-09
3.37475e-08
5.39135e-09
3.94324e-08
7.23637e-09
4.49962e-08
9.50219e-09
5.02966e-08
1.22644e-08
5.5163e-08
1.56127e-08
5.93927e-08
1.96534e-08
6.27461e-08
2.45115e-08
6.49421e-08
3.03333e-08
6.56532e-08
3.72889e-08
6.44993e-08
4.55752e-08
6.10413e-08
5.54186e-08
5.47744e-08
6.70775e-08
4.51205e-08
8.08445e-08
3.1422e-08
9.70477e-08
1.29348e-08
1.16051e-07
-1.11753e-08
1.38252e-07
-4.1834e-08
1.64081e-07
-8.00582e-08
1.93994e-07
-1.26949e-07
2.28466e-07
-1.83679e-07
2.67983e-07
-2.51465e-07
3.13032e-07
-3.31562e-07
3.6409e-07
-4.25108e-07
-5.33773e-07
4.21737e-07
7.4279e-11
2.21016e-09
3.06831e-10
6.67303e-09
7.19593e-10
1.14201e-08
1.3385e-09
1.64145e-08
2.19426e-09
2.16063e-08
3.32322e-09
2.69299e-08
4.76845e-09
3.23022e-08
6.58098e-09
3.76199e-08
8.82113e-09
4.27561e-08
1.156e-08
4.75577e-08
1.48815e-08
5.18416e-08
1.88839e-08
5.53903e-08
2.36827e-08
5.79473e-08
2.94123e-08
5.92126e-08
3.62284e-08
5.8837e-08
4.43113e-08
5.64164e-08
5.38677e-08
5.14849e-08
6.51339e-08
4.35082e-08
7.83775e-08
3.18769e-08
9.38992e-08
1.59002e-08
1.12034e-07
-5.19973e-09
1.33148e-07
-3.22893e-08
1.57639e-07
-6.63253e-08
1.85932e-07
-1.08351e-07
2.1847e-07
-1.59487e-07
2.55701e-07
-2.20911e-07
2.98073e-07
-2.93837e-07
3.46018e-07
-3.79507e-07
3.99923e-07
-4.79013e-07
-5.94145e-07
4.60295e-07
8.54119e-11
2.12475e-09
3.54228e-10
6.40421e-09
8.33038e-10
1.09413e-08
1.55287e-09
1.56947e-08
2.54997e-09
2.06092e-08
3.86672e-09
2.56131e-08
5.55267e-09
3.06163e-08
7.6658e-09
3.55067e-08
1.02739e-08
4.0148e-08
1.34559e-08
4.43756e-08
1.73042e-08
4.79933e-08
2.19261e-08
5.07684e-08
2.74461e-08
5.24272e-08
3.40084e-08
5.26503e-08
4.17786e-08
5.10668e-08
5.0947e-08
4.7248e-08
6.17306e-08
4.07013e-08
7.43753e-08
3.08635e-08
8.91579e-08
1.70944e-08
1.06387e-07
-1.32894e-09
1.26402e-07
-2.52148e-08
1.49572e-07
-5.54596e-08
1.76294e-07
-9.30472e-08
2.06983e-07
-1.3904e-07
2.42064e-07
-1.94568e-07
2.81956e-07
-2.60803e-07
3.27058e-07
-3.38938e-07
3.77737e-07
-4.30187e-07
4.34276e-07
-5.35552e-07
-6.56965e-07
4.97096e-07
9.50337e-11
2.02972e-09
3.95691e-10
6.10355e-09
9.33161e-10
1.04038e-08
1.74353e-09
1.48843e-08
2.86858e-09
1.94841e-08
4.35672e-09
2.4125e-08
6.26405e-09
2.8709e-08
8.65557e-09
3.31152e-08
1.16066e-08
3.7197e-08
1.52042e-08
4.0778e-08
1.95492e-08
4.36483e-08
2.47582e-08
4.55594e-08
3.09651e-08
4.62203e-08
3.83237e-08
4.52917e-08
4.70101e-08
4.23804e-08
5.72247e-08
3.70334e-08
6.91946e-08
2.87314e-08
8.31755e-08
1.68825e-08
9.94532e-08
8.16683e-10
1.18343e-07
-2.02184e-08
1.40188e-07
-4.70598e-08
1.65359e-07
-8.06312e-08
1.94249e-07
-1.21937e-07
2.27261e-07
-1.72052e-07
2.64795e-07
-2.32102e-07
3.07235e-07
-3.03243e-07
3.54923e-07
-3.86626e-07
4.08148e-07
-4.83412e-07
4.67078e-07
-5.94482e-07
-7.21912e-07
5.32026e-07
1.03385e-10
1.92633e-09
4.32142e-10
5.7748e-09
1.02199e-09
9.81394e-09
1.91402e-09
1.39923e-08
3.15552e-09
1.82426e-08
4.80091e-09
2.24796e-08
6.91283e-09
2.6597e-08
9.56337e-09
3.04647e-08
1.28354e-08
3.3925e-08
1.68243e-08
3.67891e-08
2.16397e-08
3.88329e-08
2.74072e-08
3.97919e-08
3.42704e-08
3.93571e-08
4.23931e-08
3.71689e-08
5.19618e-08
3.28118e-08
6.31871e-08
2.58081e-08
7.63064e-08
1.56121e-08
9.1585e-08
1.60389e-09
1.09316e-07
-1.69145e-08
1.29821e-07
-4.07231e-08
1.53447e-07
-7.06861e-08
1.80565e-07
-1.07749e-07
2.11558e-07
-1.5293e-07
2.46812e-07
-2.07307e-07
2.86701e-07
-2.71991e-07
3.31562e-07
-3.48103e-07
3.81671e-07
-4.36735e-07
4.37221e-07
-5.38962e-07
4.98267e-07
-6.55529e-07
-7.88623e-07
5.64978e-07
1.10741e-10
1.81559e-09
4.6464e-10
5.4209e-09
1.10186e-09
9.17671e-09
2.06844e-09
1.30257e-08
3.41712e-09
1.68939e-08
5.2083e-09
2.06884e-08
7.51116e-09
2.42942e-08
1.04049e-08
2.7571e-08
1.398e-08
3.03498e-08
1.83403e-08
3.24289e-08
2.3604e-08
3.35692e-08
2.99061e-08
3.34898e-08
3.74e-08
3.18632e-08
4.62598e-08
2.83092e-08
5.6682e-08
2.23896e-08
6.88878e-08
1.36023e-08
8.31245e-08
1.37535e-09
9.9666e-08
-1.49376e-08
1.18813e-07
-3.60613e-08
1.40892e-07
-6.2802e-08
1.66252e-07
-9.60466e-08
1.9526e-07
-1.36757e-07
2.28287e-07
-1.85957e-07
2.65698e-07
-2.44718e-07
3.0783e-07
-3.14123e-07
3.54966e-07
-3.95239e-07
4.07307e-07
-4.89076e-07
4.64927e-07
-5.96582e-07
5.27776e-07
-7.18378e-07
-8.56678e-07
5.95831e-07
1.17398e-10
1.69819e-09
4.9433e-10
5.04397e-09
1.17532e-09
8.49572e-09
2.21127e-09
1.19897e-08
3.66031e-09
1.54449e-08
5.58877e-09
1.876e-08
8.07236e-09
2.18106e-08
1.11973e-08
2.4446e-08
1.5062e-08
2.64852e-08
1.97783e-08
2.77126e-08
2.54735e-08
2.78739e-08
3.22919e-08
2.66714e-08
4.03967e-08
2.37584e-08
4.9972e-08
1.87338e-08
6.12249e-08
1.11367e-08
7.43866e-08
4.40618e-10
8.97135e-08
-1.39516e-08
1.07488e-07
-3.27117e-08
1.28017e-07
-5.65902e-08
1.51631e-07
-8.64162e-08
1.78679e-07
-1.23094e-07
2.09519e-07
-1.67597e-07
2.44507e-07
-2.20945e-07
2.83979e-07
-2.8419e-07
3.2823e-07
-3.58374e-07
3.77479e-07
-4.44489e-07
4.31832e-07
-5.43429e-07
4.91231e-07
-6.5598e-07
5.55534e-07
-7.82681e-07
-9.25586e-07
6.24443e-07
1.23656e-10
1.57454e-09
5.2238e-10
4.64524e-09
1.24497e-09
7.77313e-09
2.34711e-09
1.08876e-08
3.89223e-09
1.38998e-08
5.95256e-09
1.66996e-08
8.61024e-09
1.91529e-08
1.19586e-08
2.10976e-08
1.61038e-08
2.234e-08
2.11659e-08
2.26504e-08
2.72811e-08
2.17587e-08
3.4603e-08
1.93496e-08
4.33046e-08
1.50568e-08
5.35802e-08
8.45825e-09
6.56467e-08
-9.29793e-10
7.97449e-08
-1.36576e-08
9.61398e-08
-3.03465e-08
1.15121e-07
-5.16932e-08
1.37002e-07
-7.84709e-08
1.62114e-07
-1.11528e-07
1.90801e-07
-1.51782e-07
2.23412e-07
-2.00207e-07
2.6028e-07
-2.57814e-07
3.01709e-07
-3.25619e-07
3.4794e-07
-4.04604e-07
3.99117e-07
-4.95666e-07
4.55231e-07
-5.99543e-07
5.16085e-07
-7.16834e-07
5.81449e-07
-8.48046e-07
-9.94748e-07
6.50611e-07
1.29809e-10
1.44473e-09
5.49935e-10
4.22511e-09
1.31336e-09
7.0097e-09
2.48046e-09
9.7205e-09
4.1199e-09
1.22603e-08
6.30972e-09
1.45098e-08
9.13846e-09
1.63242e-08
1.27065e-08
1.75295e-08
1.71277e-08
1.79189e-08
2.25303e-08
1.72478e-08
2.90592e-08
1.52298e-08
3.68773e-08
1.15314e-08
4.61674e-08
5.76672e-09
5.71334e-08
-2.50773e-09
7.00016e-08
-1.3798e-08
8.50217e-08
-2.86777e-08
1.02467e-07
-4.77919e-08
1.22634e-07
-7.18598e-08
1.45837e-07
-1.01675e-07
1.72409e-07
-1.38099e-07
2.02685e-07
-1.82058e-07
2.36998e-07
-2.3452e-07
2.75657e-07
-2.96472e-07
3.18923e-07
-3.68885e-07
3.6698e-07
-4.52662e-07
4.19877e-07
-5.48563e-07
4.7748e-07
-6.57147e-07
5.39434e-07
-7.78788e-07
6.05418e-07
-9.14029e-07
-1.06341e-06
6.74082e-07
1.3613e-10
1.3086e-09
5.78062e-10
3.78318e-09
1.38288e-09
6.20488e-09
2.61555e-09
8.48783e-09
4.34991e-09
1.0526e-08
6.6697e-09
1.219e-08
9.66981e-09
1.33241e-08
1.34577e-08
1.37417e-08
1.81544e-08
1.32221e-08
2.38967e-08
1.15055e-08
3.0838e-08
8.28859e-09
3.91502e-08
3.21919e-09
4.90254e-08
-4.10845e-09
6.06766e-08
-1.41589e-08
7.4339e-08
-2.74605e-08
9.02708e-08
-4.46095e-08
1.08752e-07
-6.62731e-08
1.30083e-07
-9.31907e-08
1.5458e-07
-1.26172e-07
1.82569e-07
-1.66089e-07
2.14377e-07
-2.13866e-07
2.50315e-07
-2.70458e-07
2.90661e-07
-3.36818e-07
3.35631e-07
-4.13855e-07
3.85342e-07
-5.02373e-07
4.39737e-07
-6.02958e-07
4.98558e-07
-7.15968e-07
5.61235e-07
-8.41465e-07
6.27291e-07
-9.80086e-07
-1.13066e-06
6.94543e-07
1.42863e-10
1.16573e-09
6.0771e-10
3.31834e-09
1.45564e-09
5.35695e-09
2.75615e-09
7.18732e-09
4.58812e-09
8.694e-09
7.04094e-09
9.7372e-09
1.02158e-08
1.01492e-08
1.42268e-08
9.73066e-09
1.92027e-08
8.24625e-09
2.52878e-08
5.42036e-09
3.26442e-08
9.32188e-10
4.14525e-08
-5.58906e-09
5.19133e-08
-1.45692e-08
6.42483e-08
-2.6494e-08
7.87012e-08
-4.19134e-08
9.55368e-08
-6.14451e-08
1.1504e-07
-8.57765e-08
1.37514e-07
-1.15664e-07
1.63271e-07
-1.51929e-07
1.92631e-07
-1.95449e-07
2.25904e-07
-2.47139e-07
2.63377e-07
-3.07931e-07
3.05291e-07
-3.78732e-07
3.51814e-07
-4.60378e-07
4.02985e-07
-5.53544e-07
4.58664e-07
-6.58637e-07
5.18477e-07
-7.75781e-07
5.81606e-07
-9.04594e-07
6.4705e-07
-1.04553e-06
-1.19525e-06
7.11633e-07
1.50212e-10
1.01552e-09
6.39682e-10
2.82887e-09
1.53345e-09
4.46318e-09
2.90545e-09
5.81533e-09
4.83952e-09
6.75993e-09
7.43061e-09
7.14611e-09
1.0786e-08
6.79385e-09
1.50265e-08
5.49017e-09
2.02879e-08
2.98483e-09
2.67224e-08
-1.01417e-09
3.44999e-08
-6.84532e-09
4.38092e-08
-1.48984e-08
5.48592e-08
-2.56192e-08
6.78795e-08
-3.95143e-08
8.31206e-08
-5.71545e-08
1.00853e-07
-7.91772e-08
1.21364e-07
-1.06288e-07
1.44955e-07
-1.39256e-07
1.71936e-07
-1.78909e-07
2.02611e-07
-2.26124e-07
2.3727e-07
-2.81799e-07
2.76171e-07
-3.46831e-07
3.19513e-07
-4.22074e-07
3.67408e-07
-5.08273e-07
4.19828e-07
-6.05964e-07
4.76585e-07
-7.15394e-07
5.37259e-07
-8.36456e-07
6.00978e-07
-9.68313e-07
6.6584e-07
-1.11039e-06
-1.25422e-06
7.24809e-07
1.58336e-10
8.57186e-10
6.74608e-10
2.31259e-09
1.61773e-09
3.52006e-09
3.06597e-09
4.36709e-09
5.10804e-09
4.71785e-09
7.84432e-09
4.40983e-09
1.1388e-08
3.25019e-09
1.58663e-08
1.01183e-09
2.14221e-08
-2.57091e-09
2.82146e-08
-7.80676e-09
3.64215e-08
-1.50521e-08
4.6239e-08
-2.47159e-08
5.78837e-08
-3.72638e-08
7.15917e-08
-5.32223e-08
8.7619e-08
-7.31818e-08
1.06239e-07
-9.77974e-08
1.2774e-07
-1.27789e-07
1.5242e-07
-1.63935e-07
1.80577e-07
-2.07066e-07
2.125e-07
-2.58046e-07
2.48452e-07
-3.17751e-07
2.88654e-07
-3.87033e-07
3.33259e-07
-4.66678e-07
3.8231e-07
-5.57325e-07
4.35726e-07
-6.5938e-07
4.93296e-07
-7.72963e-07
5.54643e-07
-8.97802e-07
6.19262e-07
-1.03293e-06
6.86377e-07
-1.17751e-06
-1.32712e-06
7.59277e-07
1.67353e-10
6.89833e-10
7.12948e-10
1.767e-09
1.70949e-09
2.52352e-09
3.23951e-09
2.83707e-09
5.39651e-09
2.56086e-09
8.28608e-09
1.52026e-09
1.20271e-08
-4.90853e-10
1.67531e-08
-3.71415e-09
2.26133e-08
-8.43111e-09
2.9774e-08
-1.49675e-08
3.84197e-08
-2.36978e-08
4.87537e-08
-3.50499e-08
6.09986e-08
-4.95088e-08
7.53963e-08
-6.762e-08
9.22061e-08
-8.99915e-08
1.11703e-07
-1.17294e-07
1.34172e-07
-1.50258e-07
1.59903e-07
-1.89667e-07
1.89181e-07
-2.36345e-07
2.22272e-07
-2.91137e-07
2.59408e-07
-3.54886e-07
3.00764e-07
-4.28389e-07
3.46431e-07
-5.12346e-07
3.96381e-07
-6.07274e-07
4.50461e-07
-7.1346e-07
5.08381e-07
-8.30883e-07
5.69694e-07
-9.59115e-07
6.33902e-07
-1.09714e-06
7.00331e-07
-1.24394e-06
-1.39492e-06
7.68131e-07
1.7733e-10
5.12503e-10
7.54966e-10
1.18936e-09
1.80934e-09
1.46914e-09
3.42717e-09
1.21924e-09
5.70656e-09
2.81473e-10
8.75815e-09
-1.53133e-09
1.27063e-08
-4.43903e-09
1.76904e-08
-8.69824e-09
2.38659e-08
-1.46066e-08
3.14053e-08
-2.25069e-08
4.04995e-08
-3.2792e-08
5.13577e-08
-4.59081e-08
6.42077e-08
-6.23588e-08
7.92949e-08
-8.27072e-08
9.68804e-08
-1.07577e-07
1.17237e-07
-1.37651e-07
1.40646e-07
-1.73666e-07
1.67383e-07
-2.16405e-07
1.97716e-07
-2.66677e-07
2.31883e-07
-3.25304e-07
2.70075e-07
-3.93079e-07
3.12419e-07
-4.70733e-07
3.5893e-07
-5.58857e-07
4.09505e-07
-6.57849e-07
4.63902e-07
-7.67858e-07
5.21721e-07
-8.88702e-07
5.82381e-07
-1.01978e-06
6.45185e-07
-1.15994e-06
7.09109e-07
-1.30786e-06
-1.45856e-06
7.72757e-07
1.88291e-10
3.24212e-10
8.00762e-10
5.76893e-10
1.9175e-09
3.524e-10
3.6293e-09
-4.92555e-10
6.03871e-09
-2.12793e-09
9.26121e-09
-4.75383e-09
1.34264e-08
-8.60422e-09
1.86791e-08
-1.39509e-08
2.51804e-08
-2.11079e-08
3.31088e-08
-3.04353e-08
4.26603e-08
-4.23435e-08
5.4049e-08
-5.72968e-08
6.75063e-08
-7.58162e-08
8.32798e-08
-9.84806e-08
1.0163e-07
-1.25927e-07
1.22825e-07
-1.58846e-07
1.47136e-07
-1.97977e-07
1.74825e-07
-2.44094e-07
2.06136e-07
-2.97988e-07
2.41271e-07
-3.6044e-07
2.80382e-07
-4.3219e-07
3.23529e-07
-5.13879e-07
3.70654e-07
-6.05983e-07
4.21578e-07
-7.08773e-07
4.75963e-07
-8.22243e-07
5.33292e-07
-9.4603e-07
5.92863e-07
-1.07935e-06
6.53821e-07
-1.2209e-06
7.14996e-07
-1.36903e-06
-1.51866e-06
7.75088e-07
2.00221e-10
1.23991e-10
8.50274e-10
-7.31601e-11
2.03384e-09
-8.31169e-10
3.84564e-09
-2.30435e-09
6.39249e-09
-4.67479e-09
9.79451e-09
-8.15585e-09
1.41862e-08
-1.29959e-08
1.97173e-08
-1.94821e-08
2.65543e-08
-2.79449e-08
3.48803e-08
-3.87613e-08
4.4896e-08
-5.23591e-08
5.68189e-08
-6.92197e-08
7.08827e-08
-8.98799e-08
8.73346e-08
-1.14933e-07
1.06432e-07
-1.45024e-07
1.28436e-07
-1.80851e-07
1.53605e-07
-2.23146e-07
1.82182e-07
-2.72671e-07
2.1438e-07
-3.30186e-07
2.50368e-07
-3.96427e-07
2.90242e-07
-4.72064e-07
3.33996e-07
-5.57633e-07
3.81505e-07
-6.53492e-07
4.32505e-07
-7.59773e-07
4.86566e-07
-8.76304e-07
5.4307e-07
-1.00253e-06
6.01231e-07
-1.13751e-06
6.60106e-07
-1.27978e-06
7.18526e-07
-1.42745e-06
-1.5755e-06
7.75365e-07
2.13072e-10
-8.90812e-11
9.03314e-10
-7.63401e-10
2.15791e-09
-2.08576e-09
4.07536e-09
-4.2218e-09
6.76659e-09
-7.36602e-09
1.0356e-08
-1.17453e-08
1.49827e-08
-1.76225e-08
2.0801e-08
-2.53004e-08
2.79817e-08
-3.51255e-08
3.67121e-08
-4.74917e-08
4.71961e-08
-6.28432e-08
5.96536e-08
-8.16772e-08
7.43184e-08
-1.04545e-07
9.14358e-08
-1.3205e-07
1.11257e-07
-1.64846e-07
1.34033e-07
-2.03627e-07
1.60006e-07
-2.49119e-07
1.89395e-07
-3.0206e-07
2.22382e-07
-3.63173e-07
2.59092e-07
-4.33137e-07
2.99562e-07
-5.12535e-07
3.43722e-07
-6.01793e-07
3.91379e-07
-7.01149e-07
4.42189e-07
-8.10583e-07
4.95631e-07
-9.29747e-07
5.51017e-07
-1.05792e-06
6.07504e-07
-1.194e-06
6.6412e-07
-1.33639e-06
7.19754e-07
-1.48309e-06
-1.62922e-06
7.73477e-07
2.26767e-10
-3.15848e-10
9.59577e-10
-1.49621e-09
2.289e-09
-3.41519e-09
4.3172e-09
-6.24999e-09
7.15895e-09
-1.02078e-08
1.09427e-08
-1.55291e-08
1.58115e-08
-2.24913e-08
2.19239e-08
-3.14128e-08
2.94542e-08
-4.26559e-08
3.85929e-08
-5.66304e-08
4.95462e-08
-7.37964e-08
6.25344e-08
-9.46654e-08
7.779e-08
-1.198e-07
9.55536e-08
-1.49813e-07
1.16068e-07
-1.8536e-07
1.39572e-07
-2.2713e-07
1.66285e-07
-2.75833e-07
1.96401e-07
-3.32176e-07
2.30066e-07
-3.96837e-07
2.67354e-07
-4.70426e-07
3.08245e-07
-5.53425e-07
3.52608e-07
-6.46155e-07
4.00178e-07
-7.48719e-07
4.50534e-07
-8.60939e-07
5.03083e-07
-9.82296e-07
5.57086e-07
-1.11192e-06
6.1167e-07
-1.24858e-06
6.6587e-07
-1.39059e-06
7.18663e-07
-1.53588e-06
-1.67986e-06
7.69307e-07
2.41211e-10
-5.57059e-10
1.01867e-09
-2.27367e-09
2.42624e-09
-4.82275e-09
4.56952e-09
-8.39327e-09
7.56691e-09
-1.32052e-08
1.15505e-08
-1.95127e-08
1.6667e-08
-2.76078e-08
2.30782e-08
-3.7824e-08
3.09615e-08
-5.05391e-08
4.05093e-08
-6.61783e-08
5.19287e-08
-8.52158e-08
6.54392e-08
-1.08176e-07
8.12696e-08
-1.35631e-07
9.96539e-08
-1.68198e-07
1.20824e-07
-2.0653e-07
1.45001e-07
-2.51307e-07
1.72382e-07
-3.03215e-07
2.03131e-07
-3.62924e-07
2.37351e-07
-4.31057e-07
2.75066e-07
-5.0814e-07
3.16198e-07
-5.94557e-07
3.60555e-07
-6.90512e-07
4.07804e-07
-7.95968e-07
4.57451e-07
-9.10586e-07
5.08854e-07
-1.0337e-06
5.61236e-07
-1.1643e-06
6.13714e-07
-1.30106e-06
6.65357e-07
-1.44224e-06
7.15244e-07
-1.58577e-06
-1.72743e-06
7.62806e-07
2.5629e-10
-8.13349e-10
1.08015e-09
-3.09753e-09
2.56856e-09
-6.31117e-09
4.8304e-09
-1.06551e-08
7.98735e-09
-1.63621e-08
1.21748e-08
-2.37001e-08
1.75425e-08
-3.29755e-08
2.4255e-08
-4.45365e-08
3.24915e-08
-5.87756e-08
4.24456e-08
-7.61324e-08
5.43238e-08
-9.7094e-08
6.8343e-08
-1.22195e-07
8.47265e-08
-1.52014e-07
1.03699e-07
-1.8717e-07
1.25478e-07
-2.2831e-07
1.50267e-07
-2.76095e-07
1.78235e-07
-3.31184e-07
2.09512e-07
-3.94201e-07
2.44157e-07
-4.65702e-07
2.82139e-07
-5.46123e-07
3.23329e-07
-6.35747e-07
3.67473e-07
-7.34655e-07
4.14169e-07
-8.42665e-07
4.62868e-07
-9.59285e-07
5.12889e-07
-1.08372e-06
5.63434e-07
-1.21485e-06
6.1363e-07
-1.35125e-06
6.62597e-07
-1.49121e-06
7.09519e-07
-1.63269e-06
-1.7719e-06
7.53993e-07
2.7188e-10
-1.08523e-09
1.1435e-09
-3.96915e-09
2.71481e-09
-7.88248e-09
5.0977e-09