/*--------------------------------*- C++ -*----------------------------------*\
| =========                 |                                                 |
| \\      /  F ield         | foam-extend: Open Source CFD                    |
|  \\    /   O peration     | Version:     4.0                                |
|   \\  /    A nd           | Web:         http://www.foam-extend.org         |
|    \\/     M anipulation  |                                                 |
\*---------------------------------------------------------------------------*/
FoamFile
{
    version     2.0;
    format      ascii;
    class       volVectorField;
    location    "40";
    object      U;
}
// * * * * * * * * * * * * * * * * * * * * * * * * * * * * * * * * * * * * * //

dimensions      [0 1 -1 0 0 0 0];

internalField   nonuniform List<vector> 
36000
(
(-4.39896e-07 2.028e-06 -2.47278e-25)
(-4.36681e-06 5.73858e-06 2.55309e-25)
(-1.25077e-05 9.21824e-06 0)
(-2.49038e-05 1.24542e-05 0)
(-4.1506e-05 1.54349e-05 -2.23394e-25)
(-6.22793e-05 1.81489e-05 -2.12209e-25)
(-8.71757e-05 2.05853e-05 0)
(-0.000116102 2.27343e-05 0)
(-0.000148915 2.4587e-05 0)
(-0.000185415 2.61357e-05 0)
(-0.00022535 2.73732e-05 0)
(-0.00026841 2.8293e-05 -2.98068e-25)
(-0.000314227 2.88892e-05 -6.2041e-28)
(-0.000362364 2.91561e-05 -2.60692e-25)
(-0.000412323 2.90881e-05 2.43053e-25)
(-0.000463537 2.86793e-05 -2.2609e-25)
(-0.000515363 2.79232e-05 4.20753e-25)
(-0.000567086 2.68123e-05 -1.94761e-25)
(-0.000617906 2.53377e-05 1.80529e-25)
(-0.000666938 2.34889e-05 4.99535e-25)
(-0.000713203 2.12533e-05 -8.13738e-28)
(-0.000755625 1.86167e-05 5.62702e-25)
(-0.000793019 1.55638e-05 -1.29402e-25)
(-0.000824094 1.20784e-05 -2.33237e-25)
(-0.00084745 8.14167e-06 -2.12136e-25)
(-0.000861531 3.72886e-06 0)
(-0.000864796 -1.03076e-06 0)
(-0.00085574 -6.30897e-06 0)
(-0.000832445 -1.20773e-05 1.33323e-25)
(-0.000792703 -1.83219e-05 -2.38498e-25)
(-6.47478e-07 6.10679e-06 0)
(-4.91214e-06 1.72844e-05 0)
(-1.33111e-05 2.77712e-05 0)
(-2.58847e-05 3.75281e-05 9.42395e-25)
(-4.25844e-05 4.65197e-05 -2.19914e-25)
(-6.33753e-05 5.47109e-05 2.12186e-25)
(-8.8209e-05 6.20684e-05 0)
(-0.000116993 6.85618e-05 0)
(-0.000149582 7.41639e-05 -7.1987e-25)
(-0.00018578 7.88502e-05 6.75162e-25)
(-0.000225333 8.25988e-05 -6.36751e-25)
(-0.000267934 8.53894e-05 5.95444e-25)
(-0.00031321 8.72032e-05 2.78918e-25)
(-0.000360729 8.80225e-05 2.61192e-25)
(-0.000409991 8.78301e-05 4.86306e-25)
(-0.000460426 8.66077e-05 0)
(-0.000511394 8.43352e-05 -1.26256e-24)
(-0.000562175 8.09895e-05 8.73158e-28)
(-0.000611968 7.65437e-05 1.44512e-24)
(-0.000659886 7.09662e-05 -1.0016e-24)
(-0.000704947 6.42187e-05 -6.1576e-25)
(-0.000746071 5.62589e-05 5.63798e-25)
(-0.000782072 4.70409e-05 -5.18706e-25)
(-0.000811654 3.65181e-05 9.44075e-25)
(-0.000833419 2.46462e-05 3.25158e-27)
(-0.000845843 1.13922e-05 7.71708e-25)
(-0.000847329 -3.13526e-06 -1.04665e-24)
(-0.000836316 -1.90594e-05 0)
(-0.000811058 -3.64351e-05 0)
(-0.000768986 -5.52616e-05 0)
(-1.05711e-06 1.00854e-05 9.96968e-25)
(-5.98852e-06 2.85537e-05 7.66735e-27)
(-1.48969e-05 4.58904e-05 -1.4812e-24)
(-2.78211e-05 6.20296e-05 1.89328e-24)
(-4.47132e-05 7.69118e-05 -2.23929e-24)
(-6.55381e-05 9.04775e-05 -1.71084e-24)
(-9.02471e-05 0.00010267 3.23323e-24)
(-0.000118747 0.000113439 -1.52494e-24)
(-0.000150895 0.000122736 0)
(-0.000186492 0.00013052 0)
(-0.000225288 0.000136754 0)
(-0.000266974 0.000141401 0)
(-0.000311178 0.00014443 1.12158e-24)
(-0.000357468 0.000145809 -2.61637e-24)
(-0.000405343 0.00014551 1.95509e-24)
(-0.000454232 0.000143499 0)
(-0.000503491 0.000139744 8.44795e-25)
(-0.000552398 0.000134205 -7.83972e-25)
(-0.000600149 0.000126836 0)
(-0.000645851 0.000117584 0)
(-0.000688516 0.000106386 3.08357e-24)
(-0.000727059 9.3172e-05 -1.7022e-24)
(-0.000760287 7.78657e-05 0)
(-0.000786902 6.03923e-05 -4.16328e-27)
(-0.0008055 4.06825e-05 -8.65765e-25)
(-0.000814573 1.86869e-05 -7.91633e-25)
(-0.000812529 -5.48322e-06 6.77649e-25)
(-0.000797725 -3.19707e-05 6.1952e-25)
(-0.000768572 -6.0797e-05 0)
(-0.000721886 -9.20147e-05 1.4433e-24)
(-1.65648e-06 1.39001e-05 0)
(-7.56406e-06 3.93706e-05 0)
(-1.72186e-05 6.3299e-05 4.96177e-25)
(-3.06563e-05 8.55928e-05 -1.90592e-24)
(-4.783e-05 0.000106167 3.61639e-24)
(-6.87039e-05 0.000124938 -2.57429e-24)
(-9.32282e-05 0.000141824 0)
(-0.00012131 0.000156752 0)
(-0.000152804 0.000169655 -2.18088e-24)
(-0.000187515 0.00018047 2.73032e-24)
(-0.000225191 0.000189143 -1.28069e-24)
(-0.000265524 0.000195622 -1.20725e-24)
(-0.000308142 0.00019986 2.25459e-24)
(-0.000352612 0.000201811 -2.10259e-24)
(-0.000398432 0.000201431 -9.79063e-25)
(-0.000445029 0.000198675 0)
(-0.000491755 0.000193491 -3.40289e-24)
(-0.000537884 0.000185825 -5.04965e-27)
(-0.000582605 0.000175611 2.9205e-24)
(-0.000625018 0.000162775 3.15646e-27)
(-0.000664129 0.000147227 2.5715e-28)
(-0.000698842 0.000128871 -7.61884e-27)
(-0.000727958 0.000107603 -1.04851e-24)
(-0.000750172 8.33187e-05 1.91448e-24)
(-0.000764078 5.59207e-05 0)
(-0.000768175 2.53815e-05 1.02956e-26)
(-0.000760876 -8.26584e-06 2.81419e-24)
(-0.000740508 -4.51236e-05 -1.29089e-24)
(-0.000705627 -8.51604e-05 -3.38123e-24)
(-0.000652127 -0.000128454 -2.94184e-24)
(-2.42779e-06 1.74923e-05 1.52067e-24)
(-9.5925e-06 4.95721e-05 -3.14718e-24)
(-2.02086e-05 7.974e-05 2.00342e-24)
(-3.4308e-05 0.000107877 1.92248e-24)
(-5.1844e-05 0.000133871 -1.81865e-24)
(-7.27791e-05 0.000157613 8.61995e-25)
(-9.70615e-05 0.000178997 -2.46201e-24)
(-0.000124596 0.000197924 6.19565e-24)
(-0.000155239 0.000214305 -7.20692e-25)
(-0.000188794 0.000228057 1.38106e-24)
(-0.000225008 0.000239105 -1.29726e-24)
(-0.000263572 0.000247379 1.20712e-24)
(-0.000304117 0.000252814 0)
(-0.000346205 0.000255349 0)
(-0.000389334 0.000254923 3.96125e-24)
(-0.000432927 0.000251474 -1.83914e-24)
(-0.000476332 0.000244935 1.70439e-24)
(-0.000518816 0.000235231 1.58104e-24)
(-0.000559561 0.000222279 -2.93866e-24)
(-0.000597658 0.000205979 -4.0693e-24)
(-0.000632102 0.00018622 1.25285e-24)
(-0.000661789 0.000162877 4.60015e-24)
(-0.000685509 0.000135819 -2.11423e-24)
(-0.000701954 0.000104913 1.88938e-26)
(-0.000709715 7.00568e-05 1.75888e-24)
(-0.000707296 3.12037e-05 -1.59261e-24)
(-0.000693101 -1.16663e-05 -1.40642e-24)
(-0.000665472 -5.86121e-05 3.80046e-26)
(-0.000623151 -0.000109535 1.11623e-24)
(-0.000560737 -0.000164469 1.96983e-24)
(-3.34847e-06 2.08095e-05 4.6056e-24)
(-1.20151e-05 5.9012e-05 -1.05735e-24)
(-2.37806e-05 9.49822e-05 0)
(-3.86709e-05 0.000128573 -9.74921e-25)
(-5.66388e-05 0.000159647 -4.62055e-24)
(-7.76437e-05 0.000188067 5.24575e-24)
(-0.00010163 0.000213699 2.49272e-24)
(-0.000128501 0.000236421 -1.54853e-24)
(-0.000158109 0.000256117 1.48518e-24)
(-0.000190257 0.000272682 -6.92785e-24)
(-0.000224692 0.000286019 3.89846e-24)
(-0.000261103 0.000296036 -1.21802e-24)
(-0.00029912 0.000302649 4.57131e-24)
(-0.000338303 0.000305779 -2.13373e-24)
(-0.000378145 0.000305344 -5.9782e-24)
(-0.000418066 0.000301266 3.70905e-24)
(-0.000457407 0.000293458 -3.44747e-24)
(-0.00049543 0.000281826 -7.34619e-27)
(-0.000531306 0.000266264 -1.50169e-24)
(-0.000564115 0.000246651 -1.37029e-24)
(-0.000592843 0.000222852 5.04579e-24)
(-0.000616373 0.000194716 -4.63607e-24)
(-0.00063349 0.000162081 0)
(-0.000642879 0.000124806 -1.95666e-24)
(-0.000643135 8.27687e-05 -1.78361e-24)
(-0.00063275 3.58848e-05 -3.25066e-24)
(-0.00061013 -1.58772e-05 2.91019e-24)
(-0.000573659 -7.25384e-05 0)
(-0.000522352 -0.000133955 5.72742e-24)
(-0.000449018 -0.000200004 -1.03233e-24)
(-4.39204e-06 2.3807e-05 0)
(-1.47627e-05 6.75651e-05 0)
(-2.7833e-05 0.000108826 0)
(-4.36208e-05 0.000147414 -1.27576e-26)
(-6.20766e-05 0.000183165 6.54012e-24)
(-8.31552e-05 0.000215913 -5.2861e-24)
(-0.000106795 0.000245498 3.35194e-24)
(-0.000132894 0.000271767 -6.31457e-24)
(-0.000161302 0.00029458 -1.49756e-24)
(-0.000191817 0.000313805 -2.80511e-24)
(-0.000224186 0.000329321 2.62692e-24)
(-0.000258095 0.000341012 1.24119e-24)
(-0.000293168 0.000348773 1.45033e-26)
(-0.000328964 0.0003525 0)
(-0.000364972 0.000352095 -1.95267e-26)
(-0.000400604 0.000347455 1.86317e-24)
(-0.000435196 0.000338474 -1.73029e-24)
(-0.000467999 0.000325037 1.60709e-24)
(-0.000498176 0.000307016 5.98348e-24)
(-0.000524795 0.000284266 -1.89222e-26)
(-0.000546829 0.000256625 -2.57336e-24)
(-0.000563154 0.000223921 -2.33025e-24)
(-0.000572548 0.000185979 -6.37637e-27)
(-0.000573695 0.000142629 -2.00506e-24)
(-0.000565182 9.3721e-05 -3.6095e-24)
(-0.00054549 3.91544e-05 4.89267e-24)
(-0.00051305 -2.11073e-05 -1.42988e-24)
(-0.000466291 -8.70477e-05 -2.59295e-24)
(-0.000404717 -0.000158453 -4.60195e-24)
(-0.000318511 -0.000235067 2.10329e-24)
(-5.52922e-06 2.64492e-05 -4.2201e-24)
(-1.77587e-05 7.51297e-05 0)
(-3.2253e-05 0.000121107 -4.18661e-24)
(-4.90191e-05 0.000164178 4.95581e-24)
(-6.80033e-05 0.000204151 -5.66159e-24)
(-8.9153e-05 0.000240828 7.16058e-24)
(-0.000112398 0.000274022 -6.77278e-24)
(-0.000137629 0.000303552 1.57916e-24)
(-0.00016469 0.000329248 2.98951e-24)
(-0.000193375 0.00035095 -1.37809e-26)
(-0.000223423 0.00036851 -5.3304e-24)
(-0.000254516 0.000381786 4.9883e-24)
(-0.000286275 0.000390648 -4.65583e-24)
(-0.000318253 0.000394968 -8.71002e-24)
(-0.000349931 0.000394623 6.07986e-24)
(-0.000380716 0.000389489 1.88147e-24)
(-0.000409935 0.000379437 -5.28418e-24)
(-0.000436828 0.000364328 -3.28099e-24)
(-0.000460547 0.000344011 -3.00691e-24)
(-0.000480149 0.000318315 8.38224e-24)
(-0.000494596 0.000287062 -2.61175e-24)
(-0.000502759 0.000250058 7.35851e-27)
(-0.00050341 0.000207103 -4.40533e-24)
(-0.000495227 0.000158002 7.9761e-24)
(-0.000476793 0.000102589 3.6101e-24)
(-0.000446594 4.07436e-05 -3.27565e-24)
(-0.000403091 -2.75669e-05 5.7278e-26)
(-0.000344727 -0.000102274 2.70923e-24)
(-0.000271862 -0.000183081 4.70577e-24)
(-0.000170997 -0.000269586 -6.37638e-24)
(-6.72904e-06 2.87095e-05 4.29973e-24)
(-2.09219e-05 8.16295e-05 -5.56018e-24)
(-3.692e-05 0.000131701 -4.25014e-24)
(-5.47174e-05 0.000178694 4.02841e-24)
(-7.42531e-05 0.000222386 3.83791e-24)
(-9.5464e-05 0.000262552 -1.79553e-24)
(-0.000118269 0.000298974 0)
(-0.000142547 0.00033144 0)
(-0.000168134 0.00035975 1.51531e-24)
(-0.000194814 0.000383716 2.84953e-24)
(-0.00022232 0.000403157 8.05997e-24)
(-0.000250327 0.000417907 -5.0361e-24)
(-0.000278447 0.000427805 -2.72114e-26)
(-0.000306227 0.000432697 4.40637e-24)
(-0.000333138 0.000432435 -2.06103e-24)
(-0.00035858 0.00042687 -3.82195e-24)
(-0.000381868 0.000415846 1.06652e-23)
(-0.000402233 0.000399201 3.28054e-24)
(-0.000418811 0.00037676 1.71836e-26)
(-0.000430653 0.000348332 1.31614e-26)
(-0.000436714 0.000313716 -1.83083e-26)
(-0.000435855 0.000272696 2.39745e-24)
(-0.000426842 0.00022505 6.61761e-24)
(-0.000408349 0.000170565 5.59862e-26)
(-0.000378967 0.000109054 3.66694e-24)
(-0.000337198 4.03891e-05 -1.00817e-23)
(-0.00028154 -3.54547e-05 -6.01079e-24)
(-0.00021037 -0.000118344 6.23773e-26)
(-0.000125395 -0.000207988 2.47308e-24)
(-8.69008e-06 -0.000303054 4.23179e-24)
(-7.95996e-06 3.05715e-05 -3.2728e-24)
(-2.41688e-05 8.70148e-05 5.63761e-24)
(-4.17106e-05 0.000140524 -2.17414e-24)
(-6.05627e-05 0.000190841 6.17223e-24)
(-8.06537e-05 0.000237717 -3.88373e-24)
(-0.000101907 0.000280895 -1.82809e-24)
(-0.000124226 0.000320127 -6.9675e-24)
(-0.000147476 0.000355171 6.55561e-24)
(-0.000171479 0.000385796 -3.11064e-24)
(-0.000196008 0.00041178 0)
(-0.000220786 0.000432915 -5.45163e-24)
(-0.000245476 0.000449 5.09811e-24)
(-0.00026968 0.000459847 -2.40271e-24)
(-0.000292934 0.000465274 4.4528e-24)
(-0.000314702 0.000465102 2.06531e-24)
(-0.00033437 0.000459156 0)
(-0.000351239 0.000447253 4.17673e-26)
(-0.000364529 0.000429208 0)
(-0.000373369 0.000404822 3.64704e-26)
(-0.000376799 0.00037388 5.73809e-24)
(-0.000373764 0.000336161 5.31113e-24)
(-0.000363117 0.000291428 2.42028e-24)
(-0.000343622 0.00023944 -1.33911e-23)
(-0.000313956 0.000179965 4.18453e-26)
(-0.000272726 0.000112804 0)
(-0.000218464 3.78268e-05 6.81624e-24)
(-0.000149721 -4.49823e-05 2.37346e-27)
(-6.4706e-05 -0.000135417 8.41943e-24)
(3.35963e-05 -0.000233692 0)
(0.000166016 -0.000335481 -4.40797e-24)
(-9.19097e-06 3.20283e-05 1.14293e-24)
(-2.74173e-05 9.12622e-05 2.32275e-24)
(-4.65017e-05 0.000147532 4.38555e-24)
(-6.64016e-05 0.000200555 -1.25101e-23)
(-8.70318e-05 0.000250051 5.90061e-24)
(-0.000108298 0.000295738 -5.60054e-24)
(-0.000130084 0.000337335 1.41217e-23)
(-0.000152238 0.000374569 -6.65003e-24)
(-0.000174564 0.000407178 6.26449e-24)
(-0.000196821 0.000434908 0)
(-0.000218715 0.000457516 0)
(-0.000239896 0.000474774 7.76993e-24)
(-0.000259954 0.000486459 5.22536e-27)
(-0.00027841 0.000492359 -4.5076e-24)
(-0.000294714 0.000492266 2.42274e-26)
(-0.000308239 0.000485973 -2.50237e-26)
(-0.000318272 0.000473275 -7.25655e-24)
(-0.000324023 0.000453959 3.37747e-24)
(-0.000324606 0.000427801 -3.11218e-24)
(-0.000319054 0.000394567 2.91002e-24)
(-0.000306303 0.000354012 -1.0674e-23)
(-0.000285201 0.000305881 -9.88756e-24)
(-0.000254514 0.000249917 4.58739e-24)
(-0.000212931 0.000185874 8.36086e-24)
(-0.00015908 0.000113544 -3.83107e-24)
(-9.15332e-05 3.27975e-05 -3.43634e-24)
(-8.93549e-06 -5.63734e-05 0)
(9.04524e-05 -0.000153698 -5.61126e-24)
(0.000203629 -0.000259892 0)
(0.000352294 -0.000367785 6.62067e-24)
(-1.03927e-05 3.30824e-05 -2.24493e-24)
(-3.05886e-05 9.43736e-05 7.06085e-24)
(-5.11748e-05 0.000152721 -8.87375e-24)
(-7.20852e-05 0.000207819 -3.53464e-26)
(-9.32172e-05 0.000259359 4.0149e-24)
(-0.000114454 0.00030703 -9.48262e-24)
(-0.000135658 0.000350524 7.16191e-24)
(-0.000156653 0.000389536 0)
(-0.000177223 0.000423772 3.2016e-24)
(-0.000197106 0.000452946 -8.96375e-24)
(-0.00021599 0.000476784 0)
(-0.000233508 0.000495022 -1.04706e-23)
(-0.000249232 0.000507407 4.89e-24)
(-0.000262666 0.000513695 -4.59476e-24)
(-0.000273243 0.000513644 -4.20551e-24)
(-0.000280315 0.000507023 7.89881e-24)
(-0.000283164 0.000493597 0)
(-0.00028098 0.000473125 3.43897e-24)
(-0.000272866 0.00044536 6.33576e-24)
(-0.000257845 0.000410049 -1.1768e-23)
(-0.000234848 0.000366927 5.41334e-24)
(-0.000202723 0.000315721 -5.02602e-24)
(-0.000160242 0.000256161 -4.58914e-24)
(-0.00010611 0.00018799 -4.23288e-24)
(-3.89891e-05 0.000110994 -4.2029e-26)
(4.2503e-05 2.50514e-05 0)
(0.000139626 -6.98292e-05 -6.43708e-24)
(0.000253939 -0.000173329 0)
(0.000382503 -0.000286253 0)
(0.000548369 -0.000400327 4.52799e-24)
(-1.1538e-05 3.37447e-05 2.33012e-24)
(-3.36095e-05 9.63743e-05 -2.40788e-24)
(-5.56183e-05 0.000156125 -1.13341e-23)
(-7.74722e-05 0.000212667 1.07461e-23)
(-9.90466e-05 0.000265669 -1.0188e-23)
(-0.0001202 0.000314791 1.15959e-23)
(-0.000140764 0.000359697 -7.28022e-24)
(-0.000160539 0.000400056 1.37059e-23)
(-0.000179283 0.00043554 -6.44025e-24)
(-0.000196708 0.000465832 3.00298e-24)
(-0.000212481 0.000490626 2.81599e-24)
(-0.000226214 0.000509626 -5.33593e-24)
(-0.000237454 0.000522547 0)
(-0.000245686 0.000529108 4.62306e-24)
(-0.000250317 0.000529042 2.51441e-26)
(-0.00025069 0.000522087 8.04484e-24)
(-0.000246063 0.000507975 -7.47613e-24)
(-0.00023561 0.000486445 3.47967e-24)
(-0.000218433 0.000457228 -6.3758e-24)
(-0.000193538 0.000420048 1.18406e-23)
(-0.000159854 0.000374622 0)
(-0.000116231 0.000320664 0)
(-6.14532e-05 0.000257891 9.27627e-24)
(5.74716e-06 0.000186044 4.22538e-24)
(8.66675e-05 0.00010491 -7.82622e-24)
(0.000182629 1.43768e-05 -3.60631e-24)
(0.000294788 -8.55382e-05 6.43464e-24)
(0.000424567 -0.000194494 5.9123e-24)
(0.000568811 -0.000313258 5.32401e-24)
(0.000752382 -0.000432684 -4.67734e-24)
(-1.26027e-05 3.40332e-05 -1.17372e-23)
(-3.64136e-05 9.73098e-05 2.40787e-24)
(-5.97303e-05 0.000157808 0)
(-8.24313e-05 0.000215178 0)
(-0.000104367 0.000269064 -8.29613e-24)
(-0.000125365 0.000319101 3.94597e-24)
(-0.000145227 0.000364929 0)
(-0.00016372 0.000406187 0)
(-0.000180571 0.000442523 -3.24538e-24)
(-0.000195467 0.000473586 9.21832e-24)
(-0.000208049 0.000499039 -3.85735e-26)
(-0.000217899 0.000518556 2.70381e-24)
(-0.000224534 0.000531819 -3.24202e-26)
(-0.000227413 0.000538515 -9.33551e-24)
(-0.000225927 0.000538348 8.74995e-24)
(-0.000219391 0.000531023 4.79291e-26)
(-0.00020705 0.000516251 3.74994e-24)
(-0.000188067 0.000493743 1.40431e-23)
(-0.000161525 0.000463208 -1.94703e-23)
(-0.000126425 0.000424353 0)
(-8.16928e-05 0.000376879 0)
(-2.61855e-05 0.000320488 1.02664e-23)
(4.12946e-05 0.000254892 -4.72172e-24)
(0.000121983 0.000179829 4.35813e-24)
(0.000217126 9.50936e-05 -3.95255e-24)
(0.000327967 5.87834e-07 2.172e-23)
(0.000455555 -0.000103661 -4.09654e-26)
(0.000601193 -0.00021728 -8.91095e-24)
(0.000761329 -0.000341113 9.10555e-26)
(0.000962838 -0.000464811 9.38913e-24)
(-1.3566e-05 3.39714e-05 -7.16523e-24)
(-3.89429e-05 9.72417e-05 9.89173e-24)
(-6.34203e-05 0.000157862 0)
(-8.68439e-05 0.000215465 -8.91007e-24)
(-0.000109035 0.000269671 4.18004e-24)
(-0.000129788 0.000320096 0)
(-0.000148869 0.000366352 3.77948e-24)
(-0.000166012 0.000408055 -3.5552e-24)
(-0.000180913 0.000444828 -3.29154e-24)
(-0.000193222 0.000476299 -3.0875e-24)
(-0.000202539 0.000502101 2.89171e-24)
(-0.000208412 0.00052187 -1.0888e-23)
(-0.000210335 0.000535255 1.01665e-23)
(-0.000207739 0.00054192 4.7691e-24)
(-0.000199993 0.000541537 -8.82942e-24)
(-0.000186393 0.000533785 4.75825e-26)
(-0.000166157 0.000518352 -7.63025e-24)
(-0.000138431 0.000494924 -7.03968e-24)
(-0.000102285 0.000463189 6.52853e-24)
(-5.67121e-05 0.000422838 6.07591e-24)
(-6.39926e-07 0.000373558 1.1255e-23)
(6.70638e-05 0.000315044 -1.03348e-23)
(0.000147573 0.000247008 0)
(0.000242084 0.000169191 -8.73132e-24)
(0.000351781 8.14004e-05 -4.05501e-24)
(0.000477812 -1.64434e-05 -3.55599e-24)
(0.000621111 -0.000124303 9.9873e-24)
(0.000782859 -0.000241767 -5.99782e-24)
(0.000959002 -0.000369858 -5.2547e-24)
(0.0011785 -0.000496734 4.89875e-24)
(-1.44116e-05 3.35887e-05 -2.41705e-24)
(-4.11521e-05 9.62468e-05 2.53859e-24)
(-6.66171e-05 0.000156401 -2.40982e-24)
(-9.06166e-05 0.00021367 -2.28284e-24)
(-0.000112939 0.000267656 4.24857e-24)
(-0.000133341 0.000317956 1.21553e-23)
(-0.000151552 0.000364163 -1.52334e-23)
(-0.000167265 0.000405871 3.55516e-24)
(-0.000180135 0.000442675 -3.33669e-24)
(-0.000189773 0.000474175 1.26067e-23)
(-0.000195745 0.000499978 -1.17996e-23)
(-0.000197565 0.000519699 5.48211e-24)
(-0.000194696 0.000532964 -1.54356e-23)
(-0.000186538 0.000539407 -9.59004e-24)
(-0.000172427 0.000538674 1.78685e-23)
(-0.000151631 0.000530417 4.17578e-24)
(-0.000123348 0.000514298 -1.54761e-23)
(-8.67051e-05 0.000489984 1.43546e-23)
(-4.07575e-05 0.000457145 -6.63535e-24)
(1.55053e-05 0.000415457 -6.17171e-24)
(8.31538e-05 0.0003646 5.98692e-26)
(0.000163305 0.000304265 0)
(0.000257105 0.000234166 4.84945e-24)
(0.000365699 0.000154057 0)
(0.000490193 6.37611e-05 8.07979e-24)
(0.00063164 -3.67769e-05 8.89814e-26)
(0.000790829 -0.000147507 0)
(0.000968817 -0.000267974 8.20282e-26)
(0.00116097 -0.000399462 -5.42394e-24)
(0.00139835 -0.000528432 4.96984e-24)
(-1.51272e-05 3.29191e-05 0)
(-4.30046e-05 9.44153e-05 -2.53859e-24)
(-6.92596e-05 0.000153562 -7.306e-24)
(-9.36646e-05 0.000209966 1.61311e-23)
(-0.000115971 0.000263216 -1.30815e-23)
(-0.000135897 0.000312893 -4.06592e-24)
(-0.000153126 0.000358574 1.15694e-23)
(-0.000167311 0.000399836 -3.65887e-24)
(-0.000178062 0.000436253 3.42959e-24)
(-0.000184952 0.000467404 -6.39224e-24)
(-0.000187506 0.000492872 5.97424e-24)
(-0.0001852 0.000512251 -5.58704e-24)
(-0.00017746 0.000525141 -6.33405e-26)
(-0.000163649 0.000531157 3.74375e-27)
(-0.000143071 0.000529915 4.54793e-24)
(-0.000114965 0.000521047 0)
(-7.85039e-05 0.000504196 7.75793e-24)
(-3.27953e-05 0.000479009 -7.19672e-24)
(2.31179e-05 0.000445143 0)
(9.02515e-05 0.000402263 6.17135e-24)
(0.000169671 0.000350044 2.57959e-26)
(0.000262474 0.000288178 -5.29438e-24)
(0.000369769 0.000216387 -1.46464e-23)
(0.000492646 0.000134443 -9.00558e-24)
(0.000632113 4.21941e-05 0)
(0.00078912 -6.03884e-05 -7.46558e-24)
(0.000964285 -0.000173236 0)
(0.00115853 -0.000295842 -6.16566e-24)
(0.00136657 -0.000429821 0)
(0.00162158 -0.000559793 -9.90457e-24)
(-1.57041e-05 3.1998e-05 0)
(-4.44721e-05 9.18428e-05 0)
(-7.12989e-05 0.000149492 0)
(-9.59169e-05 0.000204545 -9.35202e-24)
(-0.000118039 0.000256579 1.32151e-23)
(-0.000137339 0.000305164 -8.33796e-24)
(-0.000153458 0.000349868 3.94989e-24)
(-0.000165999 0.00039025 7.36945e-24)
(-0.00017453 0.00042587 0)
(-0.000178579 0.000456291 -6.51709e-24)
(-0.000177626 0.000481078 1.21007e-23)
(-0.000171109 0.000499805 -1.60437e-26)
(-0.00015841 0.000512054 -7.78105e-27)
(-0.000138852 0.000517416 -4.8829e-24)
(-0.000111707 0.000515491 4.59443e-24)
(-7.618e-05 0.000505893 0)
(-3.14195e-05 0.000488245 -1.58029e-23)
(2.34883e-05 0.000462183 1.46196e-23)
(8.95134e-05 0.000427351 -6.77367e-24)
(0.000167676 0.000383408 0)
(0.000259032 0.000330028 -5.78555e-24)
(0.000364656 0.000266911 5.34616e-24)
(0.000485615 0.000193793 4.8801e-24)
(0.000622915 0.00011047 4.44294e-24)
(0.000777476 1.68193e-05 0)
(0.000950111 -8.7153e-05 7.62139e-24)
(0.00114125 -0.000201354 0)
(0.00135165 -0.000325219 0)
(0.00157534 -0.000460747 5.85396e-24)
(0.00184753 -0.000590611 9.97883e-24)
(-1.61369e-05 3.08605e-05 0)
(-4.55352e-05 8.86258e-05 0)
(-7.26984e-05 0.000144342 0)
(-9.73177e-05 0.000197603 9.49812e-24)
(-0.000119064 0.000247981 8.96374e-24)
(-0.000137568 0.000295039 -1.27224e-23)
(-0.000152422 0.000338336 3.9997e-24)
(-0.000163182 0.000377425 -7.4282e-24)
(-0.000169367 0.000411854 7.00074e-24)
(-0.000170458 0.000441172 -1.31566e-23)
(-0.000165891 0.000464934 2.29646e-26)
(-0.000155057 0.000482698 2.10717e-26)
(-0.000137292 0.000494033 5.37705e-24)
(-0.000111882 0.000498511 0)
(-7.80577e-05 0.000495719 -1.38271e-23)
(-3.49936e-05 0.000485257 8.58929e-24)
(1.81914e-05 0.000466736 7.92345e-24)
(8.24317e-05 0.000439782 -7.41846e-24)
(0.000158711 0.000404033 6.86863e-24)
(0.00024805 0.000359145 -6.32052e-24)
(0.000351493 0.000304798 1.1686e-23)
(0.000470088 0.000240703 -5.39518e-24)
(0.000604836 0.000166619 0)
(0.000756667 8.23714e-05 1.81942e-23)
(0.000926386 -1.21297e-05 -1.67928e-23)
(0.00111465 -0.000116832 7.76782e-27)
(0.00132167 -0.000231614 -7.00637e-24)
(0.00154802 -0.000355843 -6.29596e-24)
(0.00178697 -0.000491948 -5.63209e-24)
(0.00207571 -0.000620576 0)
(-1.64229e-05 2.95414e-05 0)
(-4.61819e-05 8.48602e-05 0)
(-7.34324e-05 0.000138262 5.04864e-24)
(-9.78234e-05 0.00018934 -9.58059e-24)
(-0.000118983 0.000237664 -9.09603e-24)
(-0.000136496 0.000282796 1.28474e-23)
(-0.000149905 0.000324291 -4.06286e-24)
(-0.000158717 0.000361697 -7.57614e-24)
(-0.000162402 0.000394559 3.57395e-24)
(-0.000160391 0.000422418 0)
(-0.000152072 0.000444821 1.24042e-23)
(-0.000136787 0.000461319 -1.16002e-23)
(-0.000113825 0.000471467 0)
(-8.24314e-05 0.000474829 0)
(-4.17955e-05 0.000470984 -4.69486e-24)
(8.94242e-06 0.000459521 -8.71697e-24)
(7.06926e-05 0.000440045 8.08411e-24)
(0.000144411 0.000412176 7.41864e-24)
(0.000231093 0.000375552 -1.38012e-23)
(0.000331759 0.000329833 -6.41009e-24)
(0.000447438 0.000274708 5.92036e-24)
(0.000579133 0.000209907 -5.43161e-24)
(0.000727777 0.000135218 5.01085e-24)
(0.000894211 5.04978e-05 0)
(0.0010791 -4.4298e-05 -1.4145e-26)
(0.00128292 -0.000149066 2.31805e-23)
(0.00150562 -0.000263651 -7.06558e-24)
(0.00174759 -0.000387338 0)
(0.00200123 -0.000523028 1.16264e-23)
(0.00230569 -0.000649277 -1.01703e-23)
(-1.65618e-05 2.80735e-05 0)
(-4.6406e-05 8.06379e-05 -1.0908e-23)
(-7.3483e-05 0.000131399 1.0283e-23)
(-9.73995e-05 0.000179952 4.91926e-24)
(-0.00011774 0.000225869 -9.24879e-24)
(-0.000134041 0.000268715 -4.31038e-24)
(-0.000145797 0.000308047 2.04277e-23)
(-0.000152464 0.000343413 -1.92146e-23)
(-0.000153462 0.000374358 1.08353e-23)
(-0.00014817 0.000400424 6.77292e-24)
(-0.000135926 0.000421152 6.32464e-24)
(-0.00011602 0.000436092 0)
(-8.76975e-05 0.000444792 -1.09077e-23)
(-5.0155e-05 0.000446816 1.01732e-23)
(-2.54322e-06 0.000441736 1.41245e-23)
(5.60341e-05 0.000429138 -8.86125e-24)
(0.000126517 0.000408627 7.91462e-26)
(0.000209882 0.000379822 -7.51907e-24)
(0.000307134 0.000342367 6.908e-24)
(0.00041929 0.00029593 6.41037e-24)
(0.000547353 0.000240217 4.99752e-26)
(0.000692267 0.000174987 0)
(0.000854899 0.000100055 1.0129e-23)
(0.00103597 1.53216e-05 0)
(0.00123599 -7.92078e-05 8.53518e-24)
(0.0014552 -0.00018337 6.05454e-26)
(0.00169328 -0.000296975 7.056e-24)
(0.00195039 -0.000419216 -7.31303e-26)
(0.00221794 -0.000553475 -2.31986e-23)
(0.00253705 -0.000676208 1.53918e-23)
(-1.65547e-05 2.64868e-05 0)
(-4.62048e-05 7.60439e-05 -1.10721e-23)
(-7.28377e-05 0.000123889 2.62202e-23)
(-9.60178e-05 0.000169625 -4.94226e-24)
(-0.000115285 0.000212828 0)
(-0.00013013 0.000253071 6.12122e-26)
(-0.000139995 0.000289917 1.65669e-23)
(-0.000144287 0.000322921 -1.5588e-23)
(-0.000142373 0.000351632 -7.22058e-24)
(-0.000133582 0.000375597 6.87981e-24)
(-0.0001172 0.00039436 -2.5435e-23)
(-9.24639e-05 0.000407472 2.96991e-23)
(-5.85723e-05 0.000414483 -2.2095e-23)
(-1.46763e-05 0.00041496 5.12388e-24)
(4.01155e-05 0.000408477 -9.52767e-24)
(0.000106735 0.000394623 8.8303e-24)
(0.000186152 0.000373006 8.29365e-24)
(0.000279362 0.000343253 -7.58845e-24)
(0.000387377 0.000305018 6.9727e-24)
(0.000511202 0.000257986 -6.48688e-24)
(0.000651795 0.00020189 3.06602e-26)
(0.000810051 0.000136513 0)
(0.000986741 6.171e-05 -1.01243e-23)
(0.00118245 -2.25694e-05 5.2283e-26)
(0.00139748 -0.000116263 4.97605e-26)
(0.00163184 -0.000219143 7.85949e-24)
(0.00188486 -0.000330982 -7.16909e-24)
(0.00215644 -0.000450869 1.30144e-23)
(0.00243692 -0.000582692 1.17928e-23)
(0.00276932 -0.00070079 0)
(-1.64036e-05 2.48079e-05 1.09224e-23)
(-4.55778e-05 7.1155e-05 -2.83297e-24)
(-7.14868e-05 0.000115858 0)
(-9.3653e-05 0.000158531 -5.0015e-24)
(-0.000111573 0.000198759 0)
(-0.000124688 0.000236125 -4.44333e-24)
(-0.000132393 0.000270204 0)
(-0.000134044 0.000300562 -1.1778e-23)
(-0.000128957 0.000326758 -7.28714e-24)
(-0.000116408 0.000348348 2.07728e-23)
(-9.56283e-05 0.000364887 6.40264e-24)
(-6.58083e-05 0.000375929 -1.79533e-23)
(-2.6095e-05 0.000381037 3.87136e-26)
(2.44054e-05 0.000379784 2.59363e-23)
(8.66259e-05 0.000371752 -3.12771e-26)
(0.000161534 0.00035654 -1.79424e-23)
(0.000250127 0.000333766 -8.24417e-24)
(0.000353415 0.000303071 0)
(0.000472413 0.000264125 7.05754e-24)
(0.000608093 0.000216641 6.53844e-24)
(0.000761379 0.000160375 -1.21069e-23)
(0.000933091 9.51491e-05 0)
(0.00112388 2.08623e-05 -1.02746e-23)
(0.00133417 -6.24821e-05 -9.36862e-24)
(0.00156403 -0.00015476 -8.59623e-24)
(0.00181317 -0.000255675 -7.80199e-24)
(0.00208054 -0.00036496 7.21463e-24)
(0.00236571 -0.00048159 -1.30072e-23)
(0.00265792 -0.000610001 7.34263e-26)
(0.00300193 -0.000722385 1.0325e-23)
(-1.61103e-05 2.30594e-05 0)
(-4.45242e-05 6.60379e-05 -4.12033e-26)
(-6.94203e-05 0.000107418 -1.62406e-23)
(-9.02798e-05 0.000146825 5.0881e-24)
(-0.000106555 0.00018386 0)
(-0.000117643 0.000218119 2.26803e-23)
(-0.000122887 0.000249193 -3.83766e-23)
(-0.000121595 0.000276663 8.01881e-24)
(-0.000113032 0.000300103 -1.49309e-23)
(-9.64215e-05 0.000319084 7.05873e-24)
(-7.09425e-05 0.000333174 0)
(-3.57355e-05 0.000341943 0)
(1.01006e-05 0.000344967 -5.68262e-24)
(6.75047e-05 0.000341832 5.2787e-24)
(0.00013745 0.000332136 0)
(0.000220938 0.000315492 8.98747e-24)
(0.000318988 0.000291537 0)
(0.000432624 0.000259931 1.55007e-23)
(0.000562839 0.000220371 -7.15969e-24)
(0.000710586 0.000172597 0)
(0.000876731 0.0001164 -6.15825e-24)
(0.001062 5.16432e-05 0)
(0.00126689 -2.17222e-05 2.06155e-23)
(0.00149164 -0.000103635 9.49868e-24)
(0.00173604 -0.000193905 8.70324e-24)
(0.00199946 -0.000292168 0)
(0.00228042 -0.000398111 5.94591e-26)
(0.00257804 -0.000510601 6.59777e-24)
(0.00288056 -0.00063466 -1.1853e-23)
(0.00323408 -0.000740322 -1.0319e-23)
(-1.56758e-05 2.12602e-05 1.12457e-23)
(-4.30418e-05 6.07489e-05 -2.95721e-24)
(-6.6626e-05 9.86633e-05 -7.77082e-26)
(-8.58698e-05 0.000134645 1.54922e-23)
(-0.000100183 0.000168311 -1.4708e-23)
(-0.000108917 0.000199275 -4.56692e-24)
(-0.000111369 0.000227148 -5.75476e-26)
(-0.000106796 0.000251532 -5.28546e-26)
(-9.44144e-05 0.000272019 0)
(-7.33944e-05 0.0002882 -1.41245e-23)
(-4.28675e-05 0.00029966 1.97606e-23)
(-1.92373e-06 0.000305991 -1.23191e-23)
(5.03847e-05 0.00030679 1.14316e-23)
(0.00011504 0.00030166 -5.27932e-24)
(0.000193053 0.000290222 0)
(0.000285454 0.00027211 9.17295e-24)
(0.000393282 0.000246983 -5.64454e-26)
(0.000517554 0.000214533 -7.74837e-24)
(0.000659252 0.000174485 7.1992e-24)
(0.000819286 0.000126612 -6.66272e-24)
(0.000998446 7.07484e-05 2.45249e-23)
(0.00119733 6.80464e-06 -2.26038e-23)
(0.00141629 -6.52126e-05 1.04153e-23)
(0.00165528 -0.000145179 -3.81044e-23)
(0.00191382 -0.00023284 -1.74051e-23)
(0.00219087 -0.000327758 5.91919e-26)
(0.00248447 -0.000429581 1.46202e-23)
(0.00279308 -0.00053707 1.97641e-23)
(0.00310432 -0.000655896 -6.00803e-24)
(0.00346478 -0.000753948 0)
(-1.50998e-05 1.94246e-05 -1.1409e-23)
(-4.11247e-05 5.53339e-05 -8.39292e-26)
(-6.30871e-05 8.96748e-05 5.52227e-24)
(-8.03895e-05 0.000122108 5.20033e-24)
(-9.24009e-05 0.000152268 -2.47869e-23)
(-9.8428e-05 0.000179792 3.72881e-23)
(-9.77235e-05 0.000204313 -2.62589e-23)
(-8.94971e-05 0.000225455 4.10163e-23)
(-7.29138e-05 0.000242837 -1.53806e-23)
(-4.70973e-05 0.00025607 -2.15123e-23)
(-1.11295e-05 0.000264767 1.34241e-23)
(3.59464e-05 0.000268543 5.73676e-26)
(9.51226e-05 0.000267019 5.84249e-24)
(0.000167421 0.000259827 0)
(0.000253887 0.000246611 9.93416e-24)
(0.000355574 0.000227035 -9.1444e-24)
(0.000473523 0.000200792 1.70554e-23)
(0.000608749 0.000167601 -7.84156e-24)
(0.000762207 0.000127226 -7.26035e-24)
(0.000934745 7.94805e-05 -6.71353e-24)
(0.00112705 2.42453e-05 -1.84543e-23)
(0.00133958 -3.85162e-05 2.27194e-23)
(0.00157247 -0.000108738 1.04289e-23)
(0.00182541 -0.00018623 -1.12796e-25)
(0.00209755 -0.000270671 -5.25711e-26)
(0.00238742 -0.000361551 0)
(0.00269242 -0.000458469 7.54152e-26)
(0.00301032 -0.000560158 -2.64692e-23)
(0.00332853 -0.000672927 5.83703e-24)
(0.00369264 -0.00076268 -1.06344e-23)
(-1.43804e-05 1.75638e-05 1.57325e-26)
(-3.87629e-05 4.98289e-05 1.78485e-23)