/*--------------------------------*- C++ -*----------------------------------*\
| =========                 |                                                 |
| \\      /  F ield         | foam-extend: Open Source CFD                    |
|  \\    /   O peration     | Version:     4.0                                |
|   \\  /    A nd           | Web:         http://www.foam-extend.org         |
|    \\/     M anipulation  |                                                 |
\*---------------------------------------------------------------------------*/
FoamFile
{
    version     2.0;
    format      ascii;
    class       volScalarField;
    location    "30";
    object      p;
}
// * * * * * * * * * * * * * * * * * * * * * * * * * * * * * * * * * * * * * //

dimensions      [0 2 -2 0 0 0 0];

internalField   nonuniform List<scalar> 
36000
(
-6.67291e-06
-6.73266e-06
-6.79475e-06
-6.85045e-06
-6.90044e-06
-6.94562e-06
-6.98593e-06
-7.02108e-06
-7.05079e-06
-7.07478e-06
-7.09273e-06
-7.10419e-06
-7.10854e-06
-7.105e-06
-7.09251e-06
-7.06975e-06
-7.03504e-06
-6.98636e-06
-6.92128e-06
-6.83701e-06
-6.73038e-06
-6.59781e-06
-6.43522e-06
-6.23948e-06
-6.00734e-06
-5.73513e-06
-5.42039e-06
-5.06187e-06
-4.6599e-06
-4.2124e-06
-6.6965e-06
-6.75547e-06
-6.81676e-06
-6.87176e-06
-6.92113e-06
-6.96574e-06
-7.00556e-06
-7.04028e-06
-7.06962e-06
-7.09332e-06
-7.11105e-06
-7.12237e-06
-7.12667e-06
-7.12316e-06
-7.1108e-06
-7.08828e-06
-7.05392e-06
-7.00572e-06
-6.94125e-06
-6.85772e-06
-6.75197e-06
-6.62048e-06
-6.45921e-06
-6.26466e-06
-6.03372e-06
-5.76292e-06
-5.44969e-06
-5.09273e-06
-4.69241e-06
-4.24485e-06
-6.74346e-06
-6.8009e-06
-6.86061e-06
-6.91421e-06
-6.96233e-06
-7.00583e-06
-7.04465e-06
-7.07851e-06
-7.10713e-06
-7.13025e-06
-7.14754e-06
-7.15857e-06
-7.16275e-06
-7.1593e-06
-7.1472e-06
-7.12514e-06
-7.09147e-06
-7.0442e-06
-6.98092e-06
-6.89883e-06
-6.79481e-06
-6.66536e-06
-6.5065e-06
-6.31446e-06
-6.08609e-06
-5.81804e-06
-5.50773e-06
-5.15382e-06
-4.7567e-06
-4.30866e-06
-6.81304e-06
-6.86823e-06
-6.92562e-06
-6.97715e-06
-7.02343e-06
-7.06528e-06
-7.10263e-06
-7.1352e-06
-7.16274e-06
-7.18498e-06
-7.20161e-06
-7.21221e-06
-7.21619e-06
-7.21281e-06
-7.20106e-06
-7.17966e-06
-7.147e-06
-7.10107e-06
-7.03951e-06
-6.95954e-06
-6.85804e-06
-6.73153e-06
-6.576e-06
-6.38768e-06
-6.1632e-06
-5.89922e-06
-5.59316e-06
-5.24369e-06
-4.85111e-06
-4.40104e-06
-6.90417e-06
-6.95643e-06
-7.0108e-06
-7.05964e-06
-7.10353e-06
-7.14321e-06
-7.17864e-06
-7.20952e-06
-7.23563e-06
-7.2567e-06
-7.27243e-06
-7.28242e-06
-7.28612e-06
-7.2828e-06
-7.27147e-06
-7.2509e-06
-7.21949e-06
-7.17528e-06
-7.11592e-06
-7.03868e-06
-6.94044e-06
-6.81762e-06
-6.6663e-06
-6.48271e-06
-6.26333e-06
-6.00463e-06
-5.70404e-06
-5.36027e-06
-4.97372e-06
-4.519e-06
-7.01546e-06
-7.06419e-06
-7.11491e-06
-7.1605e-06
-7.20148e-06
-7.23852e-06
-7.27158e-06
-7.3004e-06
-7.32473e-06
-7.34434e-06
-7.35894e-06
-7.36815e-06
-7.37144e-06
-7.36813e-06
-7.35725e-06
-7.33762e-06
-7.30766e-06
-7.26549e-06
-7.20876e-06
-7.13476e-06
-7.04032e-06
-6.92187e-06
-6.77562e-06
-6.59773e-06
-6.38436e-06
-6.13201e-06
-5.83792e-06
-5.5009e-06
-5.12265e-06
-4.66224e-06
-7.1453e-06
-7.18996e-06
-7.23648e-06
-7.2783e-06
-7.3159e-06
-7.34988e-06
-7.38018e-06
-7.40656e-06
-7.42878e-06
-7.44664e-06
-7.45987e-06
-7.4681e-06
-7.47086e-06
-7.46746e-06
-7.45703e-06
-7.43839e-06
-7.41006e-06
-7.37015e-06
-7.31635e-06
-7.24593e-06
-7.15576e-06
-7.04232e-06
-6.9018e-06
-6.73029e-06
-6.52384e-06
-6.27873e-06
-5.992e-06
-5.66229e-06
-5.29407e-06
-4.82813e-06
-7.29185e-06
-7.332e-06
-7.37384e-06
-7.41147e-06
-7.44528e-06
-7.47581e-06
-7.50299e-06
-7.52659e-06
-7.5464e-06
-7.56223e-06
-7.57383e-06
-7.58087e-06
-7.58291e-06
-7.57932e-06
-7.56929e-06
-7.55168e-06
-7.52503e-06
-7.48747e-06
-7.43675e-06
-7.37018e-06
-7.28467e-06
-7.17671e-06
-7.04248e-06
-6.87794e-06
-6.67905e-06
-6.44188e-06
-6.16323e-06
-5.84088e-06
-5.48135e-06
-5.01462e-06
-7.45314e-06
-7.48844e-06
-7.52522e-06
-7.55829e-06
-7.58798e-06
-7.61472e-06
-7.63846e-06
-7.65897e-06
-7.67607e-06
-7.68959e-06
-7.69932e-06
-7.70495e-06
-7.70608e-06
-7.70217e-06
-7.69244e-06
-7.67577e-06
-7.65074e-06
-7.61554e-06
-7.56798e-06
-7.50544e-06
-7.42484e-06
-7.32268e-06
-7.19509e-06
-7.03797e-06
-6.8471e-06
-6.61839e-06
-6.34856e-06
-6.03528e-06
-5.68268e-06
-5.21456e-06
-7.62714e-06
-7.65732e-06
-7.68876e-06
-7.717e-06
-7.74228e-06
-7.76496e-06
-7.78497e-06
-7.80212e-06
-7.81625e-06
-7.8272e-06
-7.83479e-06
-7.83877e-06
-7.8388e-06
-7.8344e-06
-7.82477e-06
-7.80887e-06
-7.78533e-06
-7.75242e-06
-7.70803e-06
-7.64957e-06
-7.57399e-06
-7.47779e-06
-7.35705e-06
-7.20758e-06
-7.02503e-06
-6.8051e-06
-6.54435e-06
-6.2403e-06
-5.89598e-06
-5.42425e-06
-7.81179e-06
-7.8367e-06
-7.86261e-06
-7.88581e-06
-7.90648e-06
-7.92488e-06
-7.94093e-06
-7.95448e-06
-7.96539e-06
-7.97351e-06
-7.97872e-06
-7.9808e-06
-7.97951e-06
-7.97437e-06
-7.9646e-06
-7.94924e-06
-7.92701e-06
-7.89625e-06
-7.85492e-06
-7.80047e-06
-7.72989e-06
-7.63965e-06
-7.5258e-06
-7.38407e-06
-7.20996e-06
-6.99891e-06
-6.74733e-06
-6.45241e-06
-6.11715e-06
-5.64024e-06
-8.00508e-06
-8.02464e-06
-8.04493e-06
-8.06298e-06
-8.07889e-06
-8.09284e-06
-8.10476e-06
-8.11451e-06
-8.12196e-06
-8.12702e-06
-8.1296e-06
-8.12957e-06
-8.1267e-06
-8.12052e-06
-8.11032e-06
-8.09524e-06
-8.07406e-06
-8.04523e-06
-8.00675e-06
-7.95614e-06
-7.89038e-06
-7.80597e-06
-7.69893e-06
-7.56484e-06
-7.39908e-06
-7.19685e-06
-6.95433e-06
-6.66837e-06
-6.34241e-06
-5.85907e-06
-8.20511e-06
-8.21936e-06
-8.23401e-06
-8.24686e-06
-8.25793e-06
-8.26732e-06
-8.27496e-06
-8.28073e-06
-8.28454e-06
-8.28633e-06
-8.28607e-06
-8.28369e-06
-8.27896e-06
-8.2714e-06
-8.26045e-06
-8.24531e-06
-8.22489e-06
-8.19769e-06
-8.16179e-06
-8.11474e-06
-8.05355e-06
-7.9747e-06
-7.87417e-06
-7.74748e-06
-7.58981e-06
-7.39612e-06
-7.16241e-06
-6.88506e-06
-6.56839e-06
-6.07748e-06
-8.41015e-06
-8.41916e-06
-8.42825e-06
-8.43593e-06
-8.44214e-06
-8.44691e-06
-8.45015e-06
-8.4518e-06
-8.45182e-06
-8.45019e-06
-8.44692e-06
-8.44192e-06
-8.43495e-06
-8.42567e-06
-8.41362e-06
-8.39811e-06
-8.37812e-06
-8.35221e-06
-8.31852e-06
-8.27464e-06
-8.21764e-06
-8.14396e-06
-8.04955e-06
-7.92983e-06
-7.77983e-06
-7.59428e-06
-7.36894e-06
-7.09968e-06
-6.79209e-06
-6.29257e-06
-8.61861e-06
-8.62256e-06
-8.62624e-06
-8.62886e-06
-8.63027e-06
-8.63043e-06
-8.62924e-06
-8.62669e-06
-8.62281e-06
-8.6176e-06
-8.61104e-06
-8.60303e-06
-8.59347e-06
-8.58216e-06
-8.56872e-06
-8.55251e-06
-8.53258e-06
-8.50755e-06
-8.47563e-06
-8.43448e-06
-8.38116e-06
-8.31216e-06
-8.22335e-06
-8.11008e-06
-7.9672e-06
-7.7892e-06
-7.57167e-06
-7.30982e-06
-7.0109e-06
-6.50179e-06
-8.82909e-06
-8.82819e-06
-8.82667e-06
-8.82436e-06
-8.82109e-06
-8.81671e-06
-8.81114e-06
-8.80435e-06
-8.7964e-06
-8.78732e-06
-8.77714e-06
-8.76594e-06
-8.75362e-06
-8.74005e-06
-8.7249e-06
-8.70761e-06
-8.6873e-06
-8.6627e-06
-8.63207e-06
-8.59312e-06
-8.54295e-06
-8.47804e-06
-8.39423e-06
-8.28675e-06
-8.15031e-06
-7.97915e-06
-7.76868e-06
-7.51346e-06
-7.22265e-06
-6.70301e-06
-9.0404e-06
-9.03493e-06
-9.02844e-06
-9.02138e-06
-9.01352e-06
-9.00463e-06
-8.99467e-06
-8.98362e-06
-8.97153e-06
-8.95852e-06
-8.94468e-06
-8.93012e-06
-8.9148e-06
-8.89866e-06
-8.88144e-06
-8.86268e-06
-8.84157e-06
-8.81693e-06
-8.78707e-06
-8.74977e-06
-8.70216e-06
-8.64069e-06
-8.56118e-06
-8.45874e-06
-8.32793e-06
-8.16277e-06
-7.95847e-06
-7.70901e-06
-7.42559e-06
-6.89453e-06
-9.25175e-06
-9.24199e-06
-9.23082e-06
-9.21924e-06
-9.20694e-06
-9.19366e-06
-9.17935e-06
-9.16403e-06
-9.1478e-06
-9.13078e-06
-9.11317e-06
-9.09506e-06
-9.07649e-06
-9.05748e-06
-9.03788e-06
-9.01726e-06
-8.99493e-06
-8.96976e-06
-8.94016e-06
-8.90392e-06
-8.85821e-06
-8.79951e-06
-8.72352e-06
-8.62529e-06
-8.4992e-06
-8.33907e-06
-8.13992e-06
-7.89523e-06
-7.61842e-06
-7.0751e-06
-9.46253e-06
-9.4488e-06
-9.43325e-06
-9.41738e-06
-9.40083e-06
-9.3833e-06
-9.36473e-06
-9.34518e-06
-9.32478e-06
-9.30372e-06
-9.28221e-06
-9.26038e-06
-9.23836e-06
-9.21624e-06
-9.19393e-06
-9.17111e-06
-9.14714e-06
-9.12098e-06
-9.09109e-06
-9.05533e-06
-9.01088e-06
-8.95418e-06
-8.8809e-06
-8.78596e-06
-8.66361e-06
-8.50743e-06
-8.31236e-06
-8.07126e-06
-7.80016e-06
-7.24383e-06
-9.67238e-06
-9.655e-06
-9.63537e-06
-9.61545e-06
-9.59486e-06
-9.57322e-06
-9.55049e-06
-9.52678e-06
-9.50223e-06
-9.47711e-06
-9.45161e-06
-9.42592e-06
-9.40028e-06
-9.37482e-06
-9.34954e-06
-9.32417e-06
-9.29818e-06
-9.27058e-06
-9.23989e-06
-9.20401e-06
-9.16013e-06
-9.10466e-06
-9.03321e-06
-8.9406e-06
-8.82092e-06
-8.6675e-06
-8.47538e-06
-8.23658e-06
-7.97017e-06
-7.4002e-06
-9.88118e-06
-9.86044e-06
-9.83703e-06
-9.81332e-06
-9.78887e-06
-9.76328e-06
-9.73652e-06
-9.70871e-06
-9.68007e-06
-9.65087e-06
-9.62132e-06
-9.59169e-06
-9.56228e-06
-9.5333e-06
-9.5048e-06
-9.4766e-06
-9.44822e-06
-9.41875e-06
-9.38676e-06
-9.35017e-06
-9.30618e-06
-9.25115e-06
-9.18062e-06
-9.08931e-06
-8.97116e-06
-8.81928e-06
-8.62879e-06
-8.391e-06
-8.12812e-06
-7.54408e-06
-1.0089e-05
-1.00652e-05
-1.00383e-05
-1.0011e-05
-9.98288e-06
-9.9535e-06
-9.92283e-06
-9.89103e-06
-9.85836e-06
-9.82508e-06
-9.79144e-06
-9.75782e-06
-9.72455e-06
-9.6919e-06
-9.65998e-06
-9.62869e-06
-9.5976e-06
-9.56587e-06
-9.53209e-06
-9.4942e-06
-9.44939e-06
-9.39399e-06
-9.32344e-06
-9.23235e-06
-9.1145e-06
-8.96296e-06
-8.77264e-06
-8.53451e-06
-8.27386e-06
-7.67569e-06
-1.02961e-05
-1.02694e-05
-1.02392e-05
-1.02086e-05
-1.0177e-05
-1.0144e-05
-1.01096e-05
-1.00739e-05
-1.00373e-05
-9.99992e-06
-9.96222e-06
-9.92458e-06
-9.88738e-06
-9.85094e-06
-9.81543e-06
-9.78082e-06
-9.74674e-06
-9.71237e-06
-9.67634e-06
-9.63658e-06
-9.59026e-06
-9.53365e-06
-9.46213e-06
-9.37015e-06
-9.2513e-06
-9.09875e-06
-8.90714e-06
-8.66723e-06
-8.40718e-06
-7.79537e-06
-1.05028e-05
-1.04735e-05
-1.04403e-05
-1.04065e-05
-1.03716e-05
-1.03351e-05
-1.0297e-05
-1.02576e-05
-1.0217e-05
-1.01757e-05
-1.0134e-05
-1.00923e-05
-1.00511e-05
-1.00108e-05
-9.97161e-06
-9.9335e-06
-9.89617e-06
-9.8588e-06
-9.82006e-06
-9.77787e-06
-9.72934e-06
-9.67069e-06
-9.59719e-06
-9.50314e-06
-9.38209e-06
-9.22698e-06
-9.03257e-06
-8.78939e-06
-8.52785e-06
-7.90357e-06
-1.07096e-05
-1.06779e-05
-1.06418e-05
-1.06051e-05
-1.0567e-05
-1.05271e-05
-1.04855e-05
-1.04424e-05
-1.0398e-05
-1.03528e-05
-1.03071e-05
-1.02614e-05
-1.02163e-05
-1.0172e-05
-1.0129e-05
-1.00873e-05
-1.00464e-05
-1.00057e-05
-9.96384e-06
-9.91865e-06
-9.86722e-06
-9.80567e-06
-9.72917e-06
-9.63183e-06
-9.50728e-06
-9.34814e-06
-9.14929e-06
-8.90134e-06
-8.63568e-06
-8.00136e-06
-1.09171e-05
-1.08831e-05
-1.08443e-05
-1.08047e-05
-1.07636e-05
-1.07205e-05
-1.06755e-05
-1.06288e-05
-1.05806e-05
-1.05315e-05
-1.04819e-05
-1.04323e-05
-1.03832e-05
-1.0335e-05
-1.02882e-05
-1.02426e-05
-1.0198e-05
-1.01537e-05
-1.01082e-05
-1.00595e-05
-1.00044e-05
-9.93912e-06
-9.85856e-06
-9.75678e-06
-9.6273e-06
-9.46267e-06
-9.25771e-06
-9.00366e-06
-8.73089e-06
-8.09095e-06
-1.11259e-05
-1.10897e-05
-1.10482e-05
-1.10058e-05
-1.09618e-05
-1.09156e-05
-1.08672e-05
-1.0817e-05
-1.07653e-05
-1.07124e-05
-1.0659e-05
-1.06054e-05
-1.05524e-05
-1.05003e-05
-1.04495e-05
-1.04e-05
-1.03515e-05
-1.03032e-05
-1.02538e-05
-1.02009e-05
-1.01415e-05
-1.00715e-05
-9.98581e-06
-9.87845e-06
-9.74263e-06
-9.57102e-06
-9.35823e-06
-9.09667e-06
-8.81231e-06
-8.17305e-06
-1.13366e-05
-1.12981e-05
-1.12541e-05
-1.1209e-05
-1.11621e-05
-1.11128e-05
-1.10612e-05
-1.10076e-05
-1.09523e-05
-1.08958e-05
-1.08386e-05
-1.07813e-05
-1.07244e-05
-1.06683e-05
-1.06135e-05
-1.05599e-05
-1.05073e-05
-1.04548e-05
-1.04008e-05
-1.03433e-05
-1.02788e-05
-1.02032e-05
-1.01113e-05
-9.99717e-06
-9.85371e-06
-9.67368e-06
-9.45115e-06
-9.17956e-06
-8.87187e-06
-8.23484e-06
-1.15497e-05
-1.1509e-05
-1.14625e-05
-1.14147e-05
-1.13649e-05
-1.13126e-05
-1.12579e-05
-1.12009e-05
-1.11422e-05
-1.10821e-05
-1.10212e-05
-1.09601e-05
-1.08993e-05
-1.08394e-05
-1.07805e-05
-1.07227e-05
-1.06658e-05
-1.06087e-05
-1.05498e-05
-1.04869e-05
-1.04166e-05
-1.03345e-05
-1.02355e-05
-1.01133e-05
-9.96105e-06
-9.77155e-06
-9.53799e-06
-9.25322e-06
-8.90112e-06
-8.26279e-06
-1.17657e-05
-1.17228e-05
-1.16737e-05
-1.16232e-05
-1.15706e-05
-1.15154e-05
-1.14575e-05
-1.13972e-05
-1.13351e-05
-1.12716e-05
-1.12071e-05
-1.11423e-05
-1.10777e-05
-1.10138e-05
-1.09508e-05
-1.08887e-05
-1.08272e-05
-1.07651e-05
-1.07009e-05
-1.0632e-05
-1.05551e-05
-1.04655e-05
-1.03583e-05
-1.0227e-05
-1.00652e-05
-9.86614e-06
-9.6226e-06
-9.32768e-06
-8.93426e-06
-8.38512e-06
-1.1985e-05
-1.19398e-05
-1.18881e-05
-1.18349e-05
-1.17795e-05
-1.17213e-05
-1.16603e-05
-1.15969e-05
-1.15314e-05
-1.14645e-05
-1.13965e-05
-1.1328e-05
-1.12596e-05
-1.11918e-05
-1.11246e-05
-1.1058e-05
-1.09916e-05
-1.09243e-05
-1.08541e-05
-1.07786e-05
-1.06941e-05
-1.05962e-05
-1.04797e-05
-1.03384e-05
-1.01662e-05
-9.9574e-06
-9.70586e-06
-9.41162e-06
-9.04057e-06
-8.91926e-06
-1.2208e-05
-1.21604e-05
-1.21059e-05
-1.20499e-05
-1.19917e-05
-1.19306e-05
-1.18665e-05
-1.18e-05
-1.17313e-05
-1.1661e-05
-1.15895e-05
-1.15174e-05
-1.14453e-05
-1.13734e-05
-1.13019e-05
-1.12307e-05
-1.11592e-05
-1.1086e-05
-1.10094e-05
-1.09265e-05
-1.08336e-05
-1.07264e-05
-1.05993e-05
-1.04467e-05
-1.02627e-05
-1.00423e-05
-9.78016e-06
-9.48065e-06
-9.11705e-06
-9.05256e-06
-1.24347e-05
-1.23846e-05
-1.23274e-05
-1.22686e-05
-1.22075e-05
-1.21434e-05
-1.20763e-05
-1.20067e-05
-1.19348e-05
-1.18611e-05
-1.17862e-05
-1.17106e-05
-1.16346e-05
-1.15587e-05
-1.14828e-05
-1.14067e-05
-1.13296e-05
-1.12503e-05
-1.11666e-05
-1.10755e-05
-1.09734e-05
-1.08556e-05
-1.07168e-05
-1.05515e-05
-1.0354e-05
-1.012e-05
-9.84466e-06
-9.53335e-06
-9.1564e-06
-9.04606e-06
-1.26652e-05
-1.26126e-05
-1.25524e-05
-1.24908e-05
-1.24268e-05
-1.23598e-05
-1.22897e-05
-1.22169e-05
-1.21418e-05
-1.20649e-05
-1.19866e-05
-1.19074e-05
-1.18276e-05
-1.17474e-05
-1.1667e-05
-1.15857e-05
-1.15028e-05
-1.14167e-05
-1.13252e-05
-1.12252e-05
-1.11128e-05
-1.09834e-05
-1.08317e-05
-1.06523e-05
-1.044e-05
-1.01906e-05
-9.89981e-06
-9.57278e-06
-9.17816e-06
-9.02304e-06
-1.28995e-05
-1.28442e-05
-1.2781e-05
-1.27164e-05
-1.26495e-05
-1.25795e-05
-1.25064e-05
-1.24306e-05
-1.23523e-05
-1.22722e-05
-1.21905e-05
-1.21076e-05
-1.20239e-05
-1.19395e-05
-1.18542e-05
-1.17675e-05
-1.16783e-05
-1.15849e-05
-1.14849e-05
-1.1375e-05
-1.12514e-05
-1.11093e-05
-1.09435e-05
-1.07488e-05
-1.05202e-05
-1.0254e-05
-9.9464e-06
-9.6019e-06
-9.19e-06
-8.99435e-06
-1.31373e-05
-1.30791e-05
-1.30129e-05
-1.29453e-05
-1.28755e-05
-1.28025e-05
-1.27264e-05
-1.26474e-05
-1.25661e-05
-1.24827e-05
-1.23975e-05
-1.2311e-05
-1.22233e-05
-1.21344e-05
-1.20441e-05
-1.19515e-05
-1.18555e-05
-1.17542e-05
-1.16449e-05
-1.15244e-05
-1.13885e-05
-1.12326e-05
-1.10516e-05
-1.08404e-05
-1.05945e-05
-1.03106e-05
-9.98521e-06
-9.62273e-06
-9.19468e-06
-8.96174e-06
-1.33782e-05
-1.33172e-05
-1.32478e-05
-1.31772e-05
-1.31043e-05
-1.30283e-05
-1.29492e-05
-1.28672e-05
-1.27827e-05
-1.2696e-05
-1.26075e-05
-1.25172e-05
-1.24254e-05
-1.23318e-05
-1.22361e-05
-1.21373e-05
-1.20339e-05
-1.1924e-05
-1.18047e-05
-1.16726e-05
-1.15235e-05
-1.13527e-05
-1.11554e-05
-1.09268e-05
-1.06627e-05
-1.03603e-05
-1.00169e-05
-9.63657e-06
-9.19371e-06
-8.92687e-06
-1.36218e-05
-1.35578e-05
-1.34852e-05
-1.34114e-05
-1.33356e-05
-1.32566e-05
-1.31744e-05
-1.30894e-05
-1.30018e-05
-1.29118e-05
-1.28197e-05
-1.27257e-05
-1.26295e-05
-1.2531e-05
-1.24296e-05
-1.2324e-05
-1.22128e-05
-1.20936e-05
-1.19635e-05
-1.18188e-05
-1.16555e-05
-1.14689e-05
-1.12543e-05
-1.10074e-05
-1.07245e-05
-1.04033e-05
-1.00418e-05
-9.64421e-06
-9.18792e-06
-8.89056e-06
-1.38674e-05
-1.38004e-05
-1.37245e-05
-1.36476e-05
-1.35687e-05
-1.34867e-05
-1.34016e-05
-1.33135e-05
-1.32228e-05
-1.31295e-05
-1.30338e-05
-1.29357e-05
-1.28351e-05
-1.27314e-05
-1.26238e-05
-1.2511e-05
-1.23913e-05
-1.2262e-05
-1.21203e-05
-1.19622e-05
-1.17837e-05
-1.15804e-05
-1.13477e-05
-1.10819e-05
-1.07797e-05
-1.04396e-05
-1.00602e-05
-9.64606e-06
-9.17766e-06
-8.85279e-06
-1.41143e-05
-1.40442e-05
-1.3965e-05
-1.3885e-05
-1.38031e-05
-1.37181e-05
-1.363e-05
-1.35389e-05
-1.34449e-05
-1.33483e-05
-1.32489e-05
-1.31467e-05
-1.30413e-05
-1.29321e-05
-1.28179e-05
-1.26974e-05
-1.25685e-05
-1.24285e-05
-1.22742e-05
-1.21018e-05
-1.19073e-05
-1.16864e-05
-1.14349e-05
-1.11496e-05
-1.08279e-05
-1.04689e-05
-1.00721e-05
-9.64232e-06
-9.16305e-06
-8.81344e-06
-1.43617e-05
-1.42884e-05
-1.42058e-05
-1.41227e-05
-1.40378e-05
-1.39499e-05
-1.38588e-05
-1.37647e-05
-1.36676e-05
-1.35675e-05
-1.34643e-05
-1.33578e-05
-1.32474e-05
-1.31322e-05
-1.3011e-05
-1.28822e-05
-1.27434e-05
-1.25918e-05
-1.24241e-05
-1.22366e-05
-1.20252e-05
-1.1786e-05
-1.15152e-05
-1.12101e-05
-1.08688e-05
-1.04912e-05
-1.00775e-05
-9.63294e-06
-9.14395e-06
-8.7724e-06
-1.46084e-05
-1.4532e-05
-1.44462e-05
-1.436e-05
-1.42721e-05
-1.41813e-05
-1.40873e-05
-1.39901e-05
-1.38898e-05
-1.37862e-05
-1.36791e-05
-1.3568e-05
-1.34523e-05
-1.33308e-05
-1.32021e-05
-1.30643e-05
-1.29149e-05
-1.2751e-05
-1.25692e-05
-1.23657e-05
-1.21367e-05
-1.18784e-05
-1.15879e-05
-1.12627e-05
-1.09019e-05
-1.0506e-05
-1.00761e-05
-9.61775e-06
-9.12007e-06
-8.72921e-06
-1.48536e-05
-1.47741e-05
-1.4685e-05
-1.45958e-05
-1.4505e-05
-1.44113e-05
-1.43144e-05
-1.42142e-05
-1.41106e-05
-1.40035e-05
-1.38923e-05
-1.37764e-05
-1.3655e-05
-1.35268e-05
-1.339e-05
-1.32426e-05
-1.3082e-05
-1.2905e-05
-1.27081e-05
-1.24879e-05
-1.22405e-05
-1.19628e-05
-1.16522e-05
-1.1307e-05
-1.09269e-05
-1.05131e-05
-1.00678e-05
-9.59642e-06
-9.09104e-06
-8.68328e-06
-1.5096e-05
-1.50135e-05
-1.49212e-05
-1.4829e-05
-1.47354e-05
-1.46389e-05
-1.45391e-05
-1.44359e-05
-1.43291e-05
-1.42182e-05
-1.41027e-05
-1.39819e-05
-1.38544e-05
-1.3719e-05
-1.35736e-05
-1.3416e-05
-1.32433e-05
-1.30524e-05
-1.28399e-05
-1.26022e-05
-1.23359e-05
-1.20384e-05
-1.17074e-05
-1.13422e-05
-1.09431e-05
-1.05122e-05
-1.0052e-05
-9.56859e-06
-9.05642e-06
-8.63348e-06
-1.53343e-05
-1.52488e-05
-1.51535e-05
-1.50584e-05
-1.49621e-05
-1.48629e-05
-1.47603e-05
-1.46541e-05
-1.45439e-05
-1.44293e-05
-1.43094e-05
-1.41832e-05
-1.40494e-05
-1.39062e-05
-1.37517e-05
-1.35832e-05
-1.33978e-05
-1.31923e-05
-1.29633e-05
-1.27075e-05
-1.24218e-05
-1.21041e-05
-1.17528e-05
-1.13678e-05
-1.09502e-05
-1.05026e-05
-1.00285e-05
-9.53392e-06
-9.01593e-06
-8.57871e-06
-1.55673e-05
-1.5479e-05
-1.53806e-05
-1.52828e-05
-1.51839e-05
-1.50821e-05
-1.49767e-05
-1.48675e-05
-1.4754e-05
-1.46354e-05
-1.45109e-05
-1.43791e-05
-1.42385e-05
-1.40872e-05
-1.39229e-05
-1.37428e-05
-1.3544e-05
-1.33232e-05
-1.30771e-05
-1.28027e-05
-1.24973e-05
-1.21593e-05
-1.17877e-05
-1.13832e-05
-1.09476e-05
-1.04842e-05
-9.99688e-06
-9.49214e-06
-8.96939e-06
-8.51834e-06
-1.57934e-05
-1.57024e-05
-1.56012e-05
-1.55008e-05
-1.53995e-05
-1.52951e-05
-1.51871e-05
-1.50749e-05
-1.4958e-05
-1.48354e-05
-1.4706e-05
-1.45683e-05
-1.44205e-05
-1.42606e-05
-1.40859e-05
-1.38936e-05
-1.36807e-05
-1.34439e-05
-1.31802e-05
-1.28867e-05
-1.25614e-05
-1.2203e-05
-1.18114e-05
-1.13878e-05
-1.09348e-05
-1.04563e-05
-9.95666e-06
-9.44284e-06
-8.91568e-06
-8.45205e-06
-1.60114e-05
-1.59178e-05
-1.5814e-05
-1.57111e-05
-1.56074e-05
-1.55007e-05
-1.539e-05
-1.52749e-05
-1.51546e-05
-1.50278e-05
-1.48933e-05
-1.47494e-05
-1.4594e-05
-1.44249e-05
-1.42393e-05
-1.40342e-05
-1.38066e-05
-1.35533e-05
-1.32714e-05
-1.29585e-05
-1.26131e-05
-1.22344e-05
-1.18231e-05
-1.1381e-05
-1.09113e-05
-1.04185e-05
-9.90747e-06
-9.38556e-06
-8.85229e-06
-8.37994e-06
-1.62195e-05
-1.61236e-05
-1.60173e-05
-1.59122e-05
-1.58063e-05
-1.56973e-05
-1.55841e-05
-1.54661e-05
-1.53423e-05
-1.52112e-05
-1.50714e-05
-1.49209e-05
-1.47576e-05
-1.45787e-05
-1.43816e-05
-1.41632e-05
-1.39203e-05
-1.36499e-05
-1.33495e-05
-1.30171e-05
-1.26515e-05
-1.22528e-05
-1.18221e-05
-1.13622e-05
-1.08767e-05
-1.03705e-05
-9.84907e-06
-9.32019e-06
-8.77907e-06
-8.30087e-06
-1.64163e-05
-1.63182e-05
-1.62096e-05
-1.61025e-05
-1.59946e-05
-1.58835e-05
-1.57679e-05
-1.5647e-05
-1.55196e-05
-1.53841e-05
-1.52387e-05
-1.50814e-05
-1.49096e-05
-1.47207e-05
-1.45115e-05
-1.42791e-05
-1.40205e-05
-1.37327e-05
-1.34135e-05
-1.30614e-05
-1.26758e-05
-1.22574e-05
-1.1808e-05
-1.13309e-05
-1.08304e-05
-1.03118e-05
-9.78112e-06
-9.2459e-06
-8.69802e-06
-8.21367e-06
-1.66001e-05
-1.65e-05
-1.63895e-05
-1.62805e-05
-1.61708e-05
-1.60577e-05
-1.59398e-05
-1.5816e-05
-1.5685e-05
-1.5545e-05
-1.53939e-05
-1.52293e-05
-1.50487e-05
-1.48491e-05
-1.46275e-05
-1.43807e-05
-1.41059e-05
-1.38003e-05
-1.34622e-05
-1.30905e-05
-1.26851e-05
-1.22474e-05
-1.178e-05
-1.12866e-05
-1.0772e-05
-1.0242e-05
-9.70326e-06
-9.16041e-06
-8.60947e-06
-8.11868e-06
-1.67693e-05
-1.66675e-05
-1.65552e-05
-1.64446e-05
-1.63333e-05
-1.62184e-05
-1.60982e-05
-1.59717e-05
-1.5837e-05
-1.56922e-05
-1.55352e-05
-1.53631e-05
-1.51733e-05
-1.49627e-05
-1.47281e-05
-1.44666e-05
-1.41752e-05
-1.38517e-05
-1.34946e-05
-1.31033e-05
-1.26786e-05
-1.22223e-05
-1.17376e-05
-1.12288e-05
-1.07012e-05
-1.01611e-05
-9.61507e-06
-9.06356e-06
-8.51232e-06
-8.01589e-06
-1.69221e-05
-1.68189e-05
-1.67051e-05
-1.65933e-05
-1.64805e-05
-1.63639e-05
-1.62417e-05
-1.61123e-05
-1.59739e-05
-1.58244e-05
-1.56611e-05
-1.54812e-05
-1.52819e-05
-1.50599e-05
-1.4812e-05
-1.45353e-05
-1.42271e-05
-1.38856e-05
-1.35096e-05
-1.30992e-05
-1.26556e-05
-1.21814e-05
-1.16803e-05
-1.11571e-05
-1.06176e-05
-1.00685e-05
-9.51508e-06
-8.95737e-06
-8.40582e-06
-7.90434e-06
-1.7057e-05
-1.69526e-05
-1.68377e-05
-1.67247e-05
-1.66108e-05
-1.64927e-05
-1.63685e-05
-1.62363e-05
-1.60942e-05
-1.59397e-05
-1.577e-05
-1.55821e-05
-1.53729e-05
-1.51392e-05
-1.48777e-05
-1.45856e-05
-1.42605e-05
-1.3901e-05
-1.35064e-05
-1.30772e-05
-1.26154e-05
-1.2124e-05
-1.16075e-05
-1.10711e-05
-1.05209e-05
-9.96399e-06
-9.40205e-06
-8.84168e-06
-8.29008e-06
-7.78389e-06
-1.71722e-05
-1.7067e-05
-1.69512e-05
-1.68374e-05
-1.67225e-05
-1.66031e-05
-1.6477e-05
-1.63422e-05
-1.61963e-05
-1.60367e-05
-1.58604e-05
-1.56642e-05
-1.54449e-05
-1.51992e-05
-1.49238e-05
-1.46162e-05
-1.42743e-05
-1.38969e-05
-1.34839e-05
-1.30366e-05
-1.25572e-05
-1.20497e-05
-1.15189e-05
-1.09703e-05
-1.04107e-05
-9.84649e-06
-9.27738e-06
-8.71595e-06
-8.16438e-06
-7.65416e-06
-1.72661e-05
-1.71603e-05
-1.70439e-05
-1.69296e-05
-1.68141e-05
-1.66936e-05
-1.65657e-05
-1.64282e-05
-1.62785e-05
-1.61137e-05
-1.59307e-05
-1.57261e-05
-1.54964e-05
-1.52384e-05
-1.49491e-05
-1.4626e-05
-1.42673e-05
-1.38723e-05
-1.34415e-05
-1.29766e-05
-1.24807e-05
-1.1958e-05
-1.14139e-05
-1.08546e-05
-1.02868e-05
-9.71499e-06
-9.14188e-06
-8.57944e-06
-8.02847e-06
-7.51491e-06
-1.73371e-05
-1.7231e-05
-1.71144e-05
-1.69999e-05
-1.68839e-05
-1.67624e-05
-1.66329e-05
-1.64928e-05
-1.63393e-05
-1.61693e-05
-1.59794e-05
-1.57661e-05
-1.5526e-05
-1.52557e-05
-1.49523e-05
-1.46137e-05
-1.42385e-05
-1.38263e-05
-1.33783e-05
-1.28967e-05
-1.23851e-05
-1.18485e-05
-1.12924e-05
-1.07235e-05
-1.01487e-05
-9.56949e-06
-8.99485e-06
-8.4321e-06
-7.88223e-06
-7.36596e-06
-1.73835e-05
-1.72775e-05
-1.71611e-05
-1.70466e-05
-1.69304e-05
-1.68082e-05
-1.66771e-05
-1.65345e-05
-1.63772e-05
-1.62019e-05
-1.60051e-05
-1.5783e-05
-1.55323e-05
-1.52496e-05
-1.49323e-05
-1.45784e-05
-1.4187e-05
-1.37582e-05
-1.32936e-05
-1.27962e-05
-1.22702e-05
-1.17207e-05
-1.1154e-05
-1.0577e-05
-9.99542e-06
-9.41117e-06
-8.83586e-06
-8.27329e-06
-7.72544e-06
-7.20719e-06
-1.74039e-05
-1.72983e-05
-1.71823e-05
-1.70682e-05
-1.6952e-05
-1.68293e-05
-1.66968e-05
-1.65518e-05
-1.63907e-05
-1.62101e-05
-1.60063e-05
-1.57755e-05
-1.55141e-05
-1.52191e-05
-1.4888e-05
-1.45191e-05
-1.41119e-05
-1.36672e-05
-1.3187e-05
-1.26748e-05
-1.21354e-05
-1.15744e-05
-1.09985e-05
-1.04145e-05
-9.82649e-06
-9.24e-06
-8.66467e-06
-8.10299e-06
-7.55804e-06
-7.03846e-06
-1.73967e-05
-1.72918e-05
-1.71767e-05
-1.70633e-05
-1.69474e-05
-1.68243e-05
-1.66906e-05
-1.65432e-05
-1.63784e-05
-1.61926e-05
-1.59817e-05
-1.57421e-05
-1.54702e-05
-1.5163e-05
-1.48184e-05
-1.44349e-05
-1.40126e-05
-1.35526e-05
-1.30577e-05
-1.2532e-05
-1.19804e-05
-1.14093e-05
-1.08255e-05
-1.02357e-05
-9.64248e-06
-9.05554e-06
-8.481e-06
-7.92114e-06
-7.37989e-06
-6.85965e-06
-3.71259e-06
-3.15885e-06
-2.59645e-06
-2.03472e-06
-1.48965e-06
-9.75108e-07
-5.0306e-07
-8.35086e-08
2.75558e-07
5.69884e-07
7.98794e-07
9.64896e-07
1.07359e-06
1.13234e-06
1.14974e-06
1.13473e-06
1.09575e-06
1.04029e-06
9.74568e-07
9.03481e-07
8.30676e-07
7.58733e-07
6.89381e-07
6.23693e-07
5.62266e-07
5.05364e-07
4.5303e-07
4.05161e-07
3.61569e-07
3.22014e-07
2.86231e-07
2.53946e-07
2.24884e-07
1.98778e-07
1.75372e-07
1.54424e-07
1.35707e-07
1.19008e-07
1.04133e-07
9.09021e-08
7.91529e-08
6.8736e-08
5.9517e-08
5.13705e-08
4.41882e-08
3.78647e-08
3.23149e-08
2.7449e-08
2.31984e-08
1.94913e-08
1.62611e-08
1.34731e-08
1.10158e-08
8.96407e-09
7.02815e-09
5.61048e-09
3.89756e-09
3.11846e-09
1.24546e-09
1.63654e-09
-3.74863e-06
-3.19029e-06
-2.62722e-06
-2.06389e-06
-1.51686e-06
-1.00014e-06
-5.25776e-07
-1.03833e-07
2.57628e-07
5.54299e-07
7.85439e-07
9.53607e-07
1.06417e-06
1.12457e-06
1.14341e-06
1.12961e-06
1.09165e-06
1.03703e-06
9.7199e-07
9.01452e-07
8.29083e-07
7.57486e-07
6.88405e-07
6.22928e-07
5.61667e-07
5.04895e-07
4.52662e-07
4.04873e-07
3.61343e-07
3.21836e-07
2.86092e-07
2.53837e-07
2.24798e-07
1.98711e-07
1.7532e-07
1.54383e-07
1.35675e-07
1.18983e-07
1.04113e-07
9.08866e-08
7.91407e-08
6.8726e-08
5.9509e-08
5.13645e-08
4.41832e-08
3.78607e-08
3.23112e-08
2.74462e-08
2.31958e-08
1.94893e-08
1.62594e-08
1.34718e-08
1.10142e-08
8.96314e-09
7.02741e-09
5.60955e-09
3.8972e-09
3.11773e-09
1.24611e-09
1.6355e-09
-3.82035e-06
-3.2524e-06
-2.68821e-06
-2.12174e-06
-1.57087e-06
-1.04989e-06
-5.70946e-07
-1.44282e-07
2.2192e-07
5.23237e-07
7.58804e-07
9.3108e-07
1.04536e-06
1.10905e-06
1.13074e-06
1.11938e-06
1.08345e-06
1.03051e-06
9.66834e-07
8.97394e-07
8.25898e-07
7.5499e-07
6.86451e-07
6.21398e-07
5.60469e-07
5.03956e-07
4.51925e-07
4.04294e-07
3.60888e-07
3.2148e-07
2.85812e-07
2.53617e-07
2.24626e-07
1.98576e-07
1.75214e-07
1.543e-07
1.3561e-07
1.18932e-07
1.04073e-07
9.08546e-08
7.91154e-08
6.87057e-08
5.94928e-08
5.13512e-08
4.41725e-08
3.78518e-08
3.23036e-08
2.744e-08
2.31902e-08
1.94851e-08
1.62554e-08
1.34687e-08
1.10115e-08
8.96087e-09
7.0256e-09
5.60799e-09
3.89646e-09
3.11548e-09
1.24737e-09
1.63419e-09
-3.9252e-06
-3.34541e-06
-2.77832e-06
-2.20719e-06
-1.65074e-06
-1.12353e-06
-6.37913e-07
-2.04332e-07
1.68839e-07
4.77008e-07
7.1912e-07
8.97481e-07
1.01728e-06
1.08587e-06
1.11181e-06
1.10407e-06
1.07118e-06
1.02074e-06
9.59109e-07
8.9131e-07
8.21122e-07
7.51248e-07
6.8352e-07
6.19103e-07
5.5867e-07
5.02546e-07
4.50819e-07
4.03426e-07
3.60207e-07
3.20945e-07
2.85392e-07
2.53288e-07
2.24368e-07
1.98374e-07
1.75055e-07
1.54176e-07
1.35512e-07
1.18854e-07
1.04012e-07
9.08063e-08
7.9077e-08
6.86749e-08
5.94681e-08
5.13311e-08
4.41561e-08
3.78383e-08
3.22922e-08
2.74304e-08
2.31819e-08
1.94786e-08
1.62494e-08
1.34639e-08
1.10074e-08
8.95739e-09
7.02282e-09
5.60556e-09
3.89536e-09
3.11213e-09
1.24921e-09
1.63213e-09
-4.06204e-06
-3.46653e-06
-2.89573e-06
-2.31868e-06
-1.7551e-06
-1.21993e-06
-7.25733e-07
-2.83231e-07
9.8978e-08
4.16064e-07
6.6672e-07
8.53053e-07
9.80107e-07
1.05513e-06
1.08669e-06
1.08373e-06
1.05486e-06
1.00775e-06
9.48825e-07
8.83207e-07
8.14757e-07
7.46258e-07
6.79611e-07
6.16041e-07
5.5627e-07
5.00664e-07
4.49343e-07
4.02267e-07
3.59297e-07
3.20231e-07
2.84832e-07
2.52848e-07
2.24023e-07
1.98103e-07
1.74843e-07
1.54009e-07
1.35381e-07
1.18751e-07
1.0393e-07
9.07417e-08
7.90256e-08
6.86337e-08
5.94349e-08
5.13042e-08
4.41341e-08
3.78201e-08
3.22769e-08
2.74176e-08
2.31708e-08
1.94696e-08
1.62414e-08
1.34574e-08
1.10018e-08
8.9527e-09
7.01905e-09
5.60226e-09
3.89389e-09
3.10771e-09
1.25159e-09
1.62933e-09
-4.22537e-06
-3.61328e-06
-3.03818e-06
-2.45422e-06
-1.88223e-06
-1.33762e-06
-8.33195e-07
-3.80014e-07
1.30962e-08
3.40986e-07
6.02041e-07
7.9811e-07
9.34051e-07
1.017e-06
1.05547e-06
1.05844e-06
1.03455e-06
9.91554e-07
9.35997e-07
8.73092e-07
8.06808e-07
7.40023e-07
6.74724e-07
6.12212e-07
5.53269e-07
4.98311e-07
4.47496e-07
4.00818e-07
3.58159e-07
3.19337e-07
2.8413e-07
2.52298e-07
2.23591e-07
1.97765e-07
1.74577e-07
1.538e-07
1.35217e-07
1.18622e-07
1.03828e-07
9.06608e-08
7.89612e-08
6.85821e-08
5.93934e-08
5.12703e-08
4.41065e-08
3.77973e-08
3.22577e-08
2.74016e-08
2.31569e-08
1.94582e-08
1.62315e-08
1.34491e-08
1.09947e-08
8.94681e-09
7.0143e-09
5.59808e-09
3.89204e-09
3.10226e-09
1.25447e-09
1.62577e-09
-4.41179e-06
-3.78257e-06
-3.20289e-06
-2.61145e-06
-2.0301e-06
-1.47486e-06
-9.58872e-07
-4.93525e-07
-8.78932e-08
2.52478e-07
5.25606e-07
7.33036e-07
8.79391e-07
9.71661e-07
1.01829e-06
1.02827e-06
1.01028e-06
9.72192e-07
9.20643e-07
8.60976e-07
7.97278e-07
7.32543e-07
6.68859e-07
6.07614e-07
5.49665e-07
4.95484e-07
4.45279e-07
3.99077e-07
3.56793e-07
3.18264e-07
2.83288e-07
2.51637e-07
2.23073e-07
1.97358e-07
1.74259e-07
1.5355e-07
1.3502e-07
1.18467e-07
1.03706e-07
9.05637e-08
7.88839e-08
6.85201e-08
5.93434e-08
5.12297e-08
4.40733e-08
3.77697e-08
3.22347e-08
2.73822e-08
2.31404e-08
1.94444e-08
1.62195e-08
1.34391e-08
1.09862e-08
8.93971e-09
7.00857e-09
5.59303e-09
3.88981e-09
3.09583e-09
1.25779e-09
1.62145e-09
-4.61921e-06
-3.97119e-06
-3.38676e-06
-2.78769e-06
-2.19641e-06
-1.62973e-06
-1.10116e-06
-6.22447e-07
-2.02948e-07
1.51344e-07
4.38023e-07
6.58274e-07
8.16441e-07
9.19331e-07
9.75301e-07
9.93318e-07
9.82134e-07
9.497e-07
9.02785e-07
8.46868e-07
7.86173e-07
7.2382e-07
6.62016e-07
6.02248e-07
5.45456e-07
4.92183e-07
4.42688e-07
3.97044e-07
3.55197e-07
3.17012e-07
2.82305e-07
2.50866e-07
2.22468e-07
1.96884e-07
1.73886e-07
1.53258e-07
1.3479e-07
1.18286e-07
1.03563e-07
9.04504e-08
7.87937e-08
6.84478e-08
5.92851e-08
5.11822e-08
4.40344e-08
3.77376e-08
3.22078e-08
2.73596e-08
2.3121e-08
1.94282e-08
1.62056e-08
1.34273e-08
1.09762e-08
8.93141e-09
7.00186e-09
5.5871e-09
3.88718e-09
3.08847e-09
1.26148e-09
1.61634e-09
-4.84343e-06
-4.17572e-06
-3.58659e-06
-2.98008e-06
-2.37865e-06
-1.80012e-06
-1.25832e-06
-7.65343e-07
-3.30922e-07
3.84758e-08
3.39965e-07
5.74322e-07
7.45557e-07
8.60258e-07
9.2666e-07