/*--------------------------------*- C++ -*----------------------------------*\
| =========                 |                                                 |
| \\      /  F ield         | foam-extend: Open Source CFD                    |
|  \\    /   O peration     | Version:     4.0                                |
|   \\  /    A nd           | Web:         http://www.foam-extend.org         |
|    \\/     M anipulation  |                                                 |
\*---------------------------------------------------------------------------*/
FoamFile
{
    version     2.0;
    format      ascii;
    class       surfaceScalarField;
    location    "30";
    object      phi;
}
// * * * * * * * * * * * * * * * * * * * * * * * * * * * * * * * * * * * * * //

dimensions      [0 3 -1 0 0 0 0];

internalField   nonuniform List<scalar> 
71520
(
-2.95638e-10
2.93958e-10
1.67995e-12
-1.18098e-09
8.80335e-10
5.0045e-12
-2.68747e-09
1.49802e-09
8.47289e-12
-4.84317e-09
2.14365e-09
1.20526e-11
-7.67171e-09
2.81284e-09
1.57028e-11
-1.11913e-08
3.50016e-09
1.93742e-11
-1.54132e-08
4.19899e-09
2.3008e-11
-2.03412e-08
4.90137e-09
2.65353e-11
-2.59689e-08
5.59787e-09
2.98761e-11
-3.22792e-08
6.27736e-09
3.29385e-11
-3.92416e-08
6.92677e-09
3.56177e-11
-4.68102e-08
7.53085e-09
3.77954e-11
-5.49215e-08
8.07193e-09
3.93391e-11
-6.34911e-08
8.52949e-09
4.01012e-11
-7.24108e-08
8.87981e-09
3.99181e-11
-8.15449e-08
9.09549e-09
3.86102e-11
-9.07259e-08
9.14498e-09
3.59814e-11
-9.97497e-08
8.99203e-09
3.18194e-11
-1.08371e-07
8.59515e-09
2.58974e-11
-1.16296e-07
7.90701e-09
1.79762e-11
-1.23178e-07
6.87416e-09
7.81158e-12
-1.2861e-07
5.43682e-09
-4.83524e-12
-1.32132e-07
3.54235e-09
-2.0366e-11
-1.3321e-07
1.11732e-09
-3.86226e-11
-1.31223e-07
-1.92685e-09
-6.01499e-11
-1.25482e-07
-5.65598e-09
-8.4992e-11
-1.15231e-07
-1.01379e-08
-1.13184e-10
-9.9653e-08
-1.54337e-08
-1.44648e-10
-7.78872e-08
-2.15866e-08
-1.79142e-10
-2.86522e-08
-4.90187e-08
-2.16339e-10
-2.91728e-10
5.85686e-10
-1.1655e-09
1.75411e-09
-2.65247e-09
2.985e-09
-4.78043e-09
4.2716e-09
-7.57275e-09
5.60516e-09
-1.10473e-08
6.97474e-09
-1.52154e-08
8.36703e-09
-2.00801e-08
9.76609e-09
-2.56351e-08
1.11529e-08
-3.1863e-08
1.25052e-08
-3.87328e-08
1.37966e-08
-4.61985e-08
1.49965e-08
-5.4196e-08
1.60695e-08
-6.26407e-08
1.69741e-08
-7.14238e-08
1.76629e-08
-8.04091e-08
1.80808e-08
-8.94284e-08
1.81643e-08
-9.82773e-08
1.78409e-08
-1.06709e-07
1.70273e-08
-1.14431e-07
1.56287e-08
-1.21095e-07
1.35385e-08
-1.26297e-07
1.06384e-08
-1.29568e-07
6.81376e-09
-1.30373e-07
1.92207e-09
-1.28099e-07
-4.20109e-09
-1.22057e-07
-1.1698e-08
-1.11491e-07
-2.07034e-08
-9.5587e-08
-3.13381e-08
-7.34867e-08
-4.36869e-08
-5.7871e-08
-4.42679e-08
-2.83997e-10
8.69683e-10
-1.13487e-09
2.60498e-09
-2.58319e-09
4.43331e-09
-4.65617e-09
6.34458e-09
-7.37666e-09
8.32566e-09
-1.07621e-08
1.03601e-08
-1.48231e-08
1.2428e-08
-1.95624e-08
1.45054e-08
-2.49731e-08
1.65637e-08
-3.10372e-08
1.85693e-08
-3.77232e-08
2.04826e-08
-4.49843e-08
2.22577e-08
-5.27558e-08
2.38409e-08
-6.09521e-08
2.51704e-08
-6.94635e-08
2.61744e-08
-7.81529e-08
2.67701e-08
-8.68509e-08
2.68624e-08
-9.53518e-08
2.63418e-08
-1.03408e-07
2.50836e-08
-1.10725e-07
2.29456e-08
-1.16955e-07
1.97684e-08
-1.21693e-07
1.53763e-08
-1.24468e-07
9.58877e-09
-1.24738e-07
2.19261e-09
-1.21897e-07
-7.04278e-09
-1.15258e-07
-1.83368e-08
-1.0407e-07
-3.18916e-08
-8.75212e-08
-4.78867e-08
-6.47621e-08
-6.6446e-08
-8.77753e-08
-3.48578e-08
-2.72633e-10
1.14232e-09
-1.08982e-09
3.42216e-09
-2.48123e-09
5.82472e-09
-4.47321e-09
8.33657e-09
-7.08782e-09
1.09403e-08
-1.03416e-08
1.3614e-08
-1.42447e-08
1.6331e-08
-1.87987e-08
1.90595e-08
-2.39963e-08
2.17612e-08
-2.98182e-08
2.43912e-08
-3.62322e-08
2.68966e-08
-4.31905e-08
2.9216e-08
-5.06273e-08
3.12777e-08
-5.84556e-08
3.29987e-08
-6.65645e-08
3.42833e-08
-7.48152e-08
3.50208e-08
-8.30367e-08
3.50839e-08
-9.10216e-08
3.43267e-08
-9.85206e-08
3.25825e-08
-1.05237e-07
2.96622e-08
-1.10822e-07
2.53536e-08
-1.14871e-07
1.94251e-08
-1.16909e-07
1.16268e-08
-1.16393e-07
1.67647e-09
-1.12717e-07
-1.07189e-08
-1.05199e-07
-2.58543e-08
-9.30936e-08
-4.39973e-08
-7.55983e-08
-6.53821e-08
-5.18811e-08
-9.01632e-08
-1.18677e-07
-2.0979e-08
-2.57911e-10
1.40023e-09
-1.03141e-09
4.19566e-09
-2.34894e-09
7.14225e-09
-4.2357e-09
1.02233e-08
-6.7126e-09
1.34172e-08
-9.79517e-09
1.66965e-08
-1.34923e-08
2.00282e-08
-1.78048e-08
2.3372e-08
-2.2724e-08
2.66804e-08
-2.82297e-08
2.98968e-08
-3.42883e-08
3.29552e-08
-4.08507e-08
3.57783e-08
-4.78493e-08
3.82764e-08
-5.51959e-08
4.03453e-08
-6.27774e-08
4.18648e-08
-7.04531e-08
4.26964e-08
-7.80499e-08
4.26807e-08
-8.53581e-08
4.16349e-08
-9.21258e-08
3.93503e-08
-9.8055e-08
3.55913e-08
-1.02795e-07
3.0094e-08
-1.05939e-07
2.25687e-08
-1.07011e-07
1.26987e-08
-1.05466e-07
1.31722e-10
-1.00703e-07
-1.54824e-08
-9.20409e-08
-3.45161e-08
-7.87407e-08
-5.72975e-08
-6.00104e-08
-8.41123e-08
-3.5061e-08
-1.15113e-07
-1.50707e-07
-3.03089e-09
-2.40174e-10
1.6404e-09
-9.60976e-10
4.91647e-09
-2.1893e-09
8.37057e-09
-3.94884e-09
1.19829e-08
-6.25908e-09
1.57274e-08
-9.13416e-09
1.95716e-08
-1.25816e-08
2.34756e-08
-1.66008e-08
2.73913e-08
-2.11817e-08
3.12613e-08
-2.63026e-08
3.50177e-08
-3.19283e-08
3.8581e-08
-3.80079e-08
4.1858e-08
-4.44721e-08
4.47406e-08
-5.12304e-08
4.71035e-08
-5.81675e-08
4.8802e-08
-6.51403e-08
4.96692e-08
-7.19731e-08
4.95134e-08
-7.84533e-08
4.81151e-08
-8.43267e-08
4.52237e-08
-8.92928e-08
4.05574e-08
-9.29993e-08
3.38005e-08
-9.5035e-08
2.46045e-08
-9.49239e-08
1.25875e-08
-9.21291e-08
-2.66301e-09
-8.60394e-08
-2.15721e-08
-7.59869e-08
-4.45686e-08
-6.12372e-08
-7.20473e-08
-4.10026e-08
-1.04347e-07
-1.44895e-08
-1.41626e-07
-1.84316e-07
1.91193e-08
-2.19831e-10
1.86023e-09
-8.80095e-10
5.57673e-09
-2.0058e-09
9.49628e-09
-3.61882e-09
1.35959e-08
-5.73686e-09
1.78454e-08
-8.37232e-09
2.22071e-08
-1.1531e-08
2.66343e-08
-1.52106e-08
3.10709e-08
-1.93993e-08
3.54499e-08
-2.40735e-08
3.96919e-08
-2.9196e-08
4.37035e-08
-3.47139e-08
4.73759e-08
-4.05556e-08
5.05822e-08
-4.66279e-08
5.31759e-08
-5.28132e-08
5.49873e-08
-5.89653e-08
5.58213e-08
-6.49055e-08
5.54536e-08
-7.04181e-08
5.36277e-08
-7.52464e-08
5.0052e-08
-7.9087e-08
4.4398e-08
-8.15845e-08
3.6298e-08
-8.23259e-08
2.53459e-08
-8.08362e-08
1.10979e-08
-7.65781e-08
-6.92107e-09
-6.89482e-08
-2.92021e-08
-5.72822e-08
-5.62346e-08
-4.0857e-08
-8.84725e-08
-1.88943e-08
-1.2631e-07
9.42029e-09
-1.6994e-07
-2.19653e-07
4.47568e-08
-1.97337e-10
2.05757e-09
-7.90545e-10
6.16994e-09
-1.80241e-09
1.05081e-08
-3.25261e-09
1.50461e-08
-5.15674e-09
1.97496e-08
-7.52508e-09
2.45754e-08
-1.03614e-08
2.94706e-08
-1.36612e-08
3.43708e-08
-1.74105e-08
3.91993e-08
-2.15836e-08
4.3865e-08
-2.6141e-08
4.82609e-08
-3.1027e-08
5.22619e-08
-3.61676e-08
5.57227e-08
-4.14667e-08
5.84749e-08
-4.68035e-08
6.03241e-08
-5.20286e-08
6.10465e-08
-5.69601e-08
6.03851e-08
-6.13791e-08
5.80467e-08
-6.50253e-08
5.36982e-08
-6.75922e-08
4.69648e-08
-6.87217e-08
3.74276e-08
-6.79998e-08
2.4624e-08
-6.49524e-08
8.05047e-09
-5.90449e-08
-1.28285e-08
-4.96804e-08
-3.85666e-08
-3.62029e-08
-6.97121e-08
-1.7905e-08
-1.0677e-07
5.95058e-09
-1.50165e-07
3.61811e-08
-2.00171e-07
-2.56993e-07
7.35215e-08
-1.73184e-10
2.23075e-09
-6.94227e-10
6.69098e-09
-1.58334e-09
1.13973e-08
-2.85768e-09
1.63204e-08
-4.53031e-09
2.14222e-08
-6.60904e-09
2.66541e-08
-9.09512e-09
3.19566e-08
-1.19817e-08
3.72573e-08
-1.52521e-08
4.24697e-08
-1.88779e-08
4.74908e-08
-2.2817e-08
5.22e-08
-2.70109e-08
5.64558e-08
-3.13822e-08
6.00941e-08
-3.58318e-08
6.29245e-08
-4.02356e-08
6.47279e-08
-4.44406e-08
6.52515e-08
-4.82611e-08
6.42056e-08
-5.14743e-08
6.12599e-08
-5.38164e-08
5.60404e-08
-5.49778e-08
4.81262e-08
-5.45983e-08
3.7048e-08
-5.22632e-08
2.22889e-08
-4.75e-08
3.2872e-09
-3.97786e-08
-2.05499e-08
-2.85094e-08
-4.98358e-08
-1.30473e-08
-8.51742e-08
7.30143e-09
-1.27119e-07
3.32675e-08
-1.76131e-07
6.55759e-08
-2.32479e-07
-2.96425e-07
1.05008e-07
-1.47875e-10
2.37863e-09
-5.93106e-10
7.13621e-09
-1.35299e-09
1.21571e-08
-2.44177e-09
1.74092e-08
-3.86963e-09
2.28501e-08
-5.64148e-09
2.8426e-08
-7.75569e-09
3.40708e-08
-1.02025e-08
3.97041e-08
-1.29622e-08
4.52294e-08
-1.60034e-08
5.0532e-08
-1.92806e-08
5.54772e-08
-2.27323e-08
5.99074e-08
-2.62774e-08
6.36392e-08
-2.98135e-08
6.64606e-08
-3.32127e-08
6.8127e-08
-3.63178e-08
6.83566e-08
-3.89389e-08
6.68267e-08
-4.08494e-08
6.31704e-08
-4.17819e-08
5.69729e-08
-4.14237e-08
4.7768e-08
-3.94128e-08
3.50372e-08
-3.53347e-08
1.82108e-08
-2.872e-08
-3.3275e-09
-1.90432e-08
-3.02267e-08
-5.7247e-09
-6.31543e-08
1.18656e-08
-1.02764e-07
3.44012e-08
-1.49655e-07
6.25879e-08
-2.04318e-07
9.71272e-08
-2.67019e-07
-3.38054e-07
1.38756e-07
-1.21912e-10
2.50054e-09
-4.8914e-10
7.50344e-09
-1.11573e-09
1.27837e-08
-2.01265e-09
1.83061e-08
-3.18679e-09
2.40242e-08
-4.63978e-09
2.9879e-08
-6.36665e-09
3.57977e-08
-8.35427e-09
4.16917e-08
-1.05796e-08
4.74547e-08
-1.30076e-08
5.296e-08
-1.55894e-08
5.8059e-08
-1.82595e-08
6.25775e-08
-2.09333e-08
6.63131e-08
-2.35044e-08
6.90318e-08
-2.58404e-08
7.0463e-08
-2.77796e-08
7.02957e-08
-2.91277e-08
6.81749e-08
-2.96544e-08
6.36971e-08
-2.90886e-08
5.64071e-08
-2.7115e-08
4.57944e-08
-2.33703e-08
3.12926e-08
-1.74406e-08
1.22811e-08
-8.86009e-09
-1.1908e-08
2.88908e-09
-4.19759e-08
1.83745e-08
-7.86397e-08
3.82086e-08
-1.22599e-07
6.30421e-08
-1.74488e-07
9.3551e-08
-2.34827e-07
1.30405e-07
-3.03872e-07
-3.81948e-07
1.74298e-07
-9.57766e-11
2.59632e-09
-3.84215e-10
7.79188e-09
-8.75783e-10
1.32753e-08
-1.57782e-09
1.90082e-08
-2.49355e-09
2.49399e-08
-3.62088e-09
3.10063e-08
-4.95109e-09
3.71279e-08
-6.46725e-09
4.32079e-08
-8.14244e-09
4.91298e-08
-9.93775e-09
5.47553e-08
-1.18002e-08
5.99215e-08
-1.36603e-08
6.44376e-08
-1.54294e-08
6.80822e-08
-1.69962e-08
7.05985e-08
-1.82232e-08
7.169e-08
-1.89443e-08
7.10168e-08
-1.8961e-08
6.81916e-08
-1.8039e-08
6.27751e-08
-1.59038e-08
5.42719e-08
-1.22376e-08
4.21282e-08
-6.67623e-09
2.57312e-08
1.1927e-09
4.41214e-09
1.18299e-08
-2.25452e-08
2.5744e-08
-5.589e-08
4.34884e-08
-9.63841e-08
6.5656e-08
-1.44766e-07
9.28694e-08
-2.01702e-07
1.2577e-07
-2.67727e-07
1.64984e-07
-3.43086e-07
-4.28129e-07
2.11166e-07
-6.9904e-11
2.66622e-09
-2.80051e-10
8.00202e-09
-6.37042e-10
1.36323e-08
-1.14427e-09
1.95154e-08
-1.8009e-09
2.55965e-08
-2.60072e-09
3.18062e-08
-3.53081e-09
3.8058e-08
-4.56999e-09
4.42471e-08
-5.68705e-09
5.02469e-08
-6.83876e-09
5.59071e-08
-7.96787e-09
6.10506e-08
-9.00014e-09
6.54699e-08
-9.84198e-09
6.8924e-08
-1.03765e-08
7.1133e-08
-1.04614e-08
7.1775e-08
-9.92636e-09
7.04817e-08
-8.56851e-09
6.68337e-08
-6.14918e-09
6.03557e-08
-2.39058e-09
5.05133e-08
3.02723e-09
3.67103e-08
1.04686e-08
1.82899e-08
2.0343e-08
-5.46232e-09
3.31052e-08
-3.53074e-08
4.92537e-08
-7.20385e-08
6.93256e-08
-1.16456e-07
9.38897e-08
-1.6933e-07
1.23536e-07
-2.31348e-07
1.58867e-07
-3.03058e-07
2.00452e-07
-3.84672e-07
-4.76583e-07
2.48906e-07
-4.46612e-11
2.71088e-09
-1.78121e-10
8.13549e-09
-4.02878e-10
1.3857e-08
-7.18096e-10
1.98306e-08
-1.1186e-09
2.5997e-08
-1.59367e-09
3.22812e-08
-2.12569e-09
3.859e-08
-2.6887e-09
4.48101e-08
-3.24683e-09
5.0805e-08
-3.75252e-09
5.64127e-08
-4.14324e-09
6.14413e-08
-4.33913e-09
6.56658e-08
-4.24067e-09
6.88256e-08
-3.72626e-09
7.06186e-08
-2.64925e-09
7.0698e-08
-8.34093e-10
6.86666e-08
1.9269e-09
6.40727e-08
5.87653e-09
5.64061e-08
1.12957e-08
4.50941e-08
1.8506e-08
2.95e-08
2.78714e-08
8.92454e-09
3.9798e-08
-1.7389e-08
5.47335e-08
-5.02429e-08
7.31641e-08
-9.0469e-08
9.56079e-08
-1.389e-07
1.22606e-07
-1.96329e-07
1.54712e-07
-2.63454e-07
1.92479e-07
-3.40825e-07
2.36414e-07
-4.28606e-07
-5.27255e-07
2.87086e-07
-2.03317e-11
2.73121e-09
-7.96192e-11
8.19477e-09
-1.76047e-10
1.39535e-08
-3.043e-10
1.99589e-08
-4.54588e-10
2.61473e-08
-6.11482e-10
3.24381e-08
-7.52528e-10
3.87311e-08
-8.46613e-10
4.49042e-08
-8.52461e-10
5.08109e-08
-7.16352e-10
5.62766e-08
-3.69972e-10
6.10949e-08
2.7144e-10
6.50244e-08
1.31243e-09
6.77846e-08
2.87998e-09
6.9051e-08
5.1266e-09
6.84513e-08
8.23319e-09
6.556e-08
1.24121e-08
5.98938e-08
1.79103e-08
5.09079e-08
2.50116e-08
3.79928e-08
3.4039e-08
2.04726e-08
4.53554e-08
-2.39186e-09
5.93626e-08
-3.13961e-08
7.64997e-08
-6.738e-08
9.72387e-08
-1.11208e-07
1.22076e-07
-1.63737e-07
1.51522e-07
-2.25775e-07
1.86087e-07
-2.98019e-07
2.26269e-07
-3.81007e-07
2.725e-07
-4.74837e-07
-5.80059e-07
3.25303e-07
2.70084e-12
2.72851e-09
1.40264e-11
8.18345e-09
4.03466e-11
1.39271e-08
9.17565e-11
1.99075e-08
1.83016e-10
2.60561e-08
3.347e-10
3.22864e-08
5.74531e-10
3.84912e-08
9.38918e-10
4.45398e-08
1.4749e-09
5.02749e-08
2.24234e-09
5.55092e-08
3.31526e-09
6.0022e-08
4.78434e-09
6.35553e-08
6.76024e-09
6.58087e-08
9.37591e-09
6.64354e-08
1.27895e-08
6.50377e-08
1.71875e-08
6.11621e-08
2.2787e-08
5.42943e-08
2.9839e-08
4.38559e-08
3.86302e-08
2.92015e-08
4.94846e-08
9.61825e-09
6.2763e-08
-1.56702e-08
7.88617e-08
-4.74948e-08
9.82102e-08
-8.67285e-08
1.21264e-07
-1.34262e-07
1.48495e-07
-1.90969e-07
1.80379e-07
-2.57658e-07
2.17377e-07
-3.35017e-07
2.59923e-07
-4.23553e-07
3.08368e-07
-5.23283e-07
-6.3487e-07
3.6318e-07
2.41209e-11
2.70439e-09
1.01678e-10
8.10589e-09
2.43803e-10
1.3785e-08
4.65591e-10
1.96857e-08
7.8705e-10
2.57346e-08
1.23425e-09
3.18392e-08
1.84063e-09
3.78849e-08
2.6486e-09
4.37318e-08
3.71134e-09
4.92122e-08
5.09443e-09
5.41261e-08
6.87811e-09
5.82383e-08
9.15961e-09
6.12738e-08
1.20561e-08
6.29122e-08
1.57067e-08
6.27847e-08
2.02758e-08
6.04687e-08
2.59552e-08
5.54827e-08
3.29673e-08
4.72822e-08
4.15669e-08
3.52563e-08
5.20435e-08
1.8725e-08
6.47211e-08
-3.05941e-09
7.99578e-08
-3.09069e-08
9.81438e-08
-6.56808e-08
1.19697e-07
-1.08282e-07
1.45054e-07
-1.59619e-07
1.74658e-07
-2.20573e-07
2.08947e-07
-2.91947e-07
2.48329e-07
-3.74398e-07
2.93161e-07
-4.68385e-07
3.43711e-07
-5.73833e-07
-6.91537e-07
4.00377e-07
4.39381e-11
2.66045e-09
1.83155e-10
7.96667e-09
4.33686e-10
1.35345e-08
8.15818e-10
1.93035e-08
1.35503e-09
2.51954e-08
2.08312e-09
3.11111e-08
3.03956e-09
3.69284e-08
4.27295e-09
4.24984e-08
5.84277e-09
4.76424e-08
7.82109e-09
5.21478e-08
1.02948e-08
5.57647e-08
1.3368e-08
5.82006e-08
1.71645e-08
5.91156e-08
2.18302e-08
5.8119e-08
2.75356e-08
5.47633e-08
3.44784e-08
4.85398e-08
4.28861e-08
3.88745e-08
5.30175e-08
2.51249e-08
6.51641e-08
6.5783e-09
7.96497e-08
-1.7545e-08
9.68286e-08
-4.80857e-08
1.17084e-07
-8.59357e-08
1.40819e-07
-1.32017e-07
1.68449e-07
-1.87249e-07
2.00388e-07
-2.52512e-07
2.37028e-07
-3.28587e-07
2.78719e-07
-4.16089e-07
3.25733e-07
-5.154e-07
3.78251e-07
-6.2635e-07
-7.49875e-07
4.36589e-07
6.20908e-11
2.59836e-09
2.58219e-10
7.77055e-09
6.0941e-10
1.31833e-08
1.14126e-09
1.87717e-08
1.88488e-09
2.44518e-08
2.87803e-09
3.0118e-08
4.16636e-09
3.56401e-08
5.80497e-09
4.08598e-08
7.85997e-09
4.55874e-08
1.04103e-08
4.95975e-08
1.35497e-08
5.26252e-08
1.73899e-08
5.43604e-08
2.20614e-08
5.44441e-08
2.77169e-08
5.24635e-08
3.45337e-08
4.79466e-08
4.27153e-08
4.03581e-08
5.24945e-08
2.90954e-08
6.41338e-08
1.34856e-08
7.79264e-08
-7.21431e-09
9.41946e-08
-3.38132e-08
1.13289e-07
-6.718e-08
1.35582e-07
-1.08229e-07
1.61463e-07
-1.57897e-07
1.91322e-07
-2.17109e-07
2.25538e-07
-2.86728e-07
2.64456e-07
-3.67505e-07
3.08355e-07
-4.59988e-07
3.57423e-07
-5.64468e-07
4.11744e-07
-6.80671e-07
-8.09673e-07
4.71542e-07
7.85876e-11
2.51978e-09
3.26873e-10
7.52226e-09
7.70915e-10
1.27393e-08
1.44171e-09
1.81009e-08
2.37611e-09
2.35174e-08
3.61797e-09
2.88761e-08
5.21935e-09
3.40387e-08
7.24203e-09
3.88371e-08
9.75902e-09
4.30704e-08
1.28564e-08
4.65001e-08
1.66356e-08
4.8846e-08
2.12153e-08
4.97807e-08
2.67336e-08
4.89259e-08
3.33503e-08
4.58468e-08
4.12493e-08
4.00475e-08
5.06406e-08
3.09668e-08
6.17618e-08
1.79742e-08
7.4879e-08
3.6837e-10
9.02861e-08
-2.26214e-08
1.08304e-07
-5.18311e-08
1.29277e-07
-8.81534e-08
1.53568e-07
-1.3252e-07
1.81546e-07
-1.85875e-07
2.13574e-07
-2.49137e-07
2.49992e-07
-3.23146e-07
2.91092e-07
-4.08605e-07
3.37074e-07
-5.0597e-07
3.88043e-07
-6.15437e-07
4.43978e-07
-7.36606e-07
-8.70692e-07
5.04997e-07
9.34993e-11
2.42628e-09
3.89363e-10
7.2264e-09
9.18697e-10
1.22099e-08
1.71794e-09
1.73017e-08
2.82977e-09
2.24055e-08
4.30423e-09
2.74017e-08
6.19994e-09
3.2143e-08
8.58554e-09
3.64515e-08
1.15412e-08
4.01147e-08
1.51603e-08
4.28809e-08
1.95522e-08
4.44541e-08
2.4843e-08
4.44899e-08
3.11784e-08
4.25904e-08
3.87257e-08
3.82995e-08
4.76757e-08
3.10976e-08
5.82444e-08
2.03981e-08
7.06744e-08
5.54419e-09
8.52347e-08
-1.41919e-08
1.0222e-07
-3.96063e-08
1.21948e-07
-7.15591e-08
1.44756e-07
-1.10962e-07
1.70994e-07
-1.58758e-07
2.01008e-07
-2.1589e-07
2.35132e-07
-2.8326e-07
2.7366e-07
-3.61675e-07
3.16823e-07
-4.51769e-07
3.64741e-07
-5.53888e-07
4.17431e-07
-6.68126e-07
4.74765e-07
-7.9394e-07
-9.32666e-07
5.36739e-07
1.06953e-10
2.31932e-09
4.46155e-10
6.88719e-09
1.05375e-09
1.16023e-08
1.97161e-09
1.63838e-08
3.24829e-09
2.11289e-08
4.94009e-09
2.57099e-08
7.11228e-09
2.99708e-08
9.84047e-09
3.37234e-08
1.32121e-08
3.67431e-08
1.73285e-08
3.87645e-08
2.23065e-08
3.94762e-08
2.82802e-08
3.85163e-08
3.54029e-08
3.54677e-08
4.38497e-08
2.98528e-08
5.38181e-08
2.11292e-08
6.55305e-08
8.68577e-09
7.92338e-08
-8.15913e-09
9.51992e-08
-3.01573e-08
1.13721e-07
-5.81286e-08
1.35115e-07
-9.29528e-08
1.59708e-07
-1.35555e-07
1.87833e-07
-1.86882e-07
2.19813e-07
-2.47869e-07
2.55943e-07
-3.19391e-07
2.96473e-07
-4.02205e-07
3.41559e-07
-4.96855e-07
3.91243e-07
-6.03572e-07
4.45448e-07
-7.22331e-07
5.03943e-07
-8.52436e-07
-9.95299e-07
5.66577e-07
1.19121e-10
2.2002e-09
4.97901e-10
6.50841e-09
1.17747e-09
1.09228e-08
2.20512e-09
1.53561e-08
3.63528e-09
1.96987e-08
5.53053e-09
2.38146e-08
7.96285e-09
2.75385e-08
1.10149e-08
3.06713e-08
1.47816e-08
3.29764e-08
1.93722e-08
3.4174e-08
2.49112e-08
3.39372e-08
3.15407e-08
3.18867e-08
3.94222e-08
2.75862e-08
4.87379e-08
2.0537e-08
5.96928e-08
1.01743e-08
7.25147e-08
-4.13613e-09
8.74544e-08
-2.30989e-08
1.04786e-07
-4.74885e-08
1.24802e-07
-7.81448e-08
1.47812e-07
-1.15963e-07
1.74133e-07
-1.61876e-07
2.04077e-07
-2.16827e-07
2.3794e-07
-2.81732e-07
2.75977e-07
-3.57428e-07
3.1838e-07
-4.44608e-07
3.65228e-07
-5.43702e-07
4.16484e-07
-6.54828e-07
4.71971e-07
-7.77818e-07
5.31361e-07
-9.11826e-07
-1.05827e-06
5.94329e-07
1.30213e-10
2.06999e-09
5.45387e-10
6.09324e-09
1.29157e-09
1.01766e-08
2.42145e-09
1.42263e-08
3.99525e-09
1.81249e-08
6.08186e-09
2.1728e-08
8.75995e-09
2.48604e-08
1.21193e-08
2.7312e-08
1.62625e-08
2.88332e-08
2.13064e-08
2.91301e-08
2.73835e-08
2.786e-08
3.46442e-08
2.46261e-08
4.32576e-08
1.89728e-08
5.34137e-08
1.03809e-08
6.5324e-08
-1.736e-09
7.92216e-08
-1.80338e-08
9.53612e-08
-3.92385e-08
1.14018e-07
-6.61449e-08
1.35482e-07
-9.96093e-08
1.60056e-07
-1.40537e-07
1.88042e-07
-1.89862e-07
2.1973e-07
-2.48515e-07
2.55383e-07
-3.17385e-07
2.95213e-07
-3.97258e-07
3.39342e-07
-4.88737e-07
3.87772e-07
-5.92133e-07
4.40384e-07
-7.0744e-07
4.96892e-07
-8.34325e-07
5.5689e-07
-9.71824e-07
-1.12121e-06
6.19836e-07
1.40458e-10
1.92953e-09
5.89495e-10
5.6442e-09
1.398e-09
9.36808e-09
2.62394e-09
1.30003e-08
4.33334e-09
1.64155e-08
6.6013e-09
1.94601e-08
9.51315e-09
2.19485e-08
1.31658e-08
2.36593e-08
1.76696e-08
2.43295e-08
2.31488e-08
2.36508e-08
2.97442e-08
2.12646e-08
3.7614e-08
1.67563e-08
4.69353e-08
9.65148e-09
5.79054e-08
-5.89164e-10
7.07418e-08
-1.45724e-08
8.56826e-08
-3.29746e-08
1.02986e-07
-5.65417e-08
1.22926e-07
-8.60854e-08
1.45791e-07
-1.22474e-07
1.71871e-07
-1.66617e-07
2.01453e-07
-2.19444e-07
2.34801e-07
-2.81863e-07
2.72141e-07
-3.54724e-07
3.13633e-07
-4.3875e-07
3.59325e-07
-5.34429e-07
4.09144e-07
-6.41952e-07
4.62874e-07
-7.61169e-07
5.20119e-07
-8.9157e-07
5.80415e-07
-1.03212e-06
-1.18373e-06
6.42934e-07
1.50099e-10
1.77943e-09
6.31153e-10
5.16315e-09
1.49878e-09
8.50045e-09
2.81617e-09
1.16829e-08
4.65501e-09
1.45767e-08
7.09655e-09
1.70185e-08
1.02327e-08
1.88123e-08
1.41677e-08
1.97243e-08
1.9019e-08
1.94782e-08
2.49189e-08
1.7751e-08
3.20158e-08
1.41676e-08
4.04759e-08
8.29621e-09
5.04839e-08
-3.5655e-10
6.22438e-08
-1.23491e-08
7.5979e-08
-2.83076e-08
9.19323e-08
-4.89278e-08
1.10363e-07
-7.49729e-08
1.31546e-07
-1.07268e-07
1.5576e-07
-1.46688e-07
1.83286e-07
-1.94143e-07
2.14388e-07
-2.50546e-07
2.49303e-07
-3.16778e-07
2.88216e-07
-3.93637e-07
3.31224e-07
-4.81758e-07
3.78305e-07
-5.81509e-07
4.29301e-07
-6.92948e-07
4.83896e-07
-8.15764e-07
5.41575e-07
-9.4925e-07
6.01827e-07
-1.09237e-06
-1.24534e-06
6.63438e-07
1.59378e-10
1.62005e-09
6.71292e-10
4.65123e-09
1.59599e-09
7.57576e-09
3.00173e-09
1.02772e-08
4.9658e-09
1.26126e-08
7.57545e-09
1.44089e-08
1.09292e-08
1.54586e-08
1.51382e-08
1.55153e-08
2.03273e-08
1.42892e-08
2.66362e-08
1.14421e-08
3.42212e-08
6.58261e-09
4.32559e-08
-7.38564e-10
5.39323e-08
-1.10329e-08
6.64605e-08
-2.48773e-08
8.10696e-08
-4.29167e-08
9.80056e-08
-6.58639e-08
1.17529e-07
-9.44961e-08
1.39909e-07
-1.29648e-07
1.65419e-07
-1.72198e-07
1.94324e-07
-2.23047e-07
2.26864e-07
-2.83087e-07
2.63243e-07
-3.53158e-07
3.036e-07
-4.33994e-07
3.47967e-07
-5.26125e-07
3.96249e-07
-6.29791e-07
4.48202e-07
-7.44901e-07
5.034e-07
-8.70962e-07
5.61191e-07
-1.00704e-06
6.21018e-07
-1.1522e-06
-1.30546e-06
6.81132e-07
1.68522e-10
1.45153e-09
7.10796e-10
4.10896e-09
1.69156e-09
6.59499e-09
3.18406e-09
8.78469e-09
5.27098e-09
1.05257e-08
8.04552e-09
1.16343e-08
1.16127e-08
1.18914e-08
1.60903e-08
1.10377e-08
2.16102e-08
8.76923e-09
2.83197e-08
4.73256e-09
3.63824e-08
-1.48007e-09
4.5979e-08
-1.03352e-08
5.73079e-08
-2.23618e-08
7.05856e-08
-3.81549e-08
8.60452e-08
-5.83763e-08
1.03935e-07
-8.37535e-08
1.24514e-07
-1.15075e-07
1.48047e-07
-1.53181e-07
1.74795e-07
-1.98946e-07
2.05004e-07
-2.53257e-07
2.38891e-07
-3.16973e-07
2.76621e-07
-3.90888e-07
3.1828e-07
-4.75653e-07
3.63834e-07
-5.71679e-07
4.13121e-07
-6.79078e-07
4.65807e-07
-7.97587e-07
5.21351e-07
-9.26506e-07
5.78929e-07
-1.06462e-06
6.37869e-07
-1.21114e-06
-1.36338e-06
6.95794e-07
1.77744e-10
1.27379e-09
7.50481e-10
3.53622e-09
1.78732e-09
5.55815e-09
3.36633e-09
7.20568e-09
5.57547e-09
8.31653e-09
8.51374e-09
8.69606e-09
1.22923e-08
8.11285e-09
1.70356e-08
6.29443e-09
2.28823e-08
2.92248e-09
2.99868e-08
-2.37188e-09
3.85194e-08
-1.00127e-08
4.86675e-08
-2.04833e-08
6.06359e-08
-3.43302e-08
7.46457e-08
-5.21647e-08
9.09334e-08
-7.4664e-08
1.09748e-07
-1.02568e-07
1.31344e-07
-1.36672e-07
1.5598e-07
-1.77817e-07
1.83903e-07
-2.26869e-07
2.15338e-07
-2.84691e-07
2.5047e-07
-3.52105e-07
2.89424e-07
-4.29842e-07
3.32227e-07
-5.18457e-07
3.78788e-07
-6.1824e-07
4.28878e-07
-7.29168e-07
4.82088e-07
-8.50796e-07
5.3778e-07
-9.82199e-07
5.94945e-07
-1.12178e-06
6.52439e-07
-1.26863e-06
-1.41814e-06
7.07195e-07
1.87225e-10
1.08656e-09
7.91056e-10
2.93239e-09
1.88484e-09
4.46437e-09
3.55129e-09
5.53922e-09
5.88352e-09
5.98431e-09
8.98614e-09
5.59344e-09
1.29762e-08
4.12275e-09
1.79845e-08
1.28617e-09
2.41562e-08
-3.24922e-09
3.16521e-08
-9.86777e-09
4.06491e-08
-1.90097e-08
5.13408e-08
-3.1175e-08
6.39369e-08
-4.69263e-08
7.86626e-08
-6.68904e-08
9.57558e-08
-9.17572e-08
1.15464e-07
-1.22276e-07
1.38038e-07
-1.59246e-07
1.63724e-07
-2.03503e-07
1.92752e-07
-2.55898e-07
2.25323e-07
-3.17262e-07
2.61587e-07
-3.88369e-07
3.01624e-07
-4.69879e-07
3.454e-07
-5.62233e-07
3.92772e-07
-6.65612e-07
4.43454e-07
-7.7985e-07
4.96995e-07
-9.04338e-07
5.52738e-07
-1.03794e-06
6.09669e-07
-1.17871e-06
6.65909e-07
-1.32487e-06
-1.46718e-06
7.14955e-07
1.97114e-10
8.8945e-10
8.33096e-10
2.29641e-09
1.98539e-09
3.31207e-09
3.74122e-09
3.78339e-09
6.19868e-09
3.52685e-09
9.46767e-09
2.32444e-09
1.3671e-08
-8.05639e-11
1.89452e-08
-3.98808e-09
2.54418e-08
-9.74576e-09
3.33275e-08
-1.77535e-08
4.27851e-08
-2.84674e-08
5.40135e-08
-4.24034e-08
6.72266e-08
-6.01394e-08
8.26518e-08
-8.23157e-08
1.00527e-07
-1.09633e-07
1.21097e-07
-1.42846e-07
1.44605e-07
-1.82753e-07
1.71282e-07
-2.3018e-07
2.01339e-07
-2.85954e-07
2.34946e-07
-3.50869e-07
2.72219e-07
-4.25642e-07
3.13178e-07
-5.10838e-07
3.5774e-07
-6.06794e-07
4.05702e-07
-7.13574e-07
4.56727e-07
-8.30876e-07
5.10342e-07
-9.57952e-07
5.65937e-07
-1.09354e-06
6.22898e-07
-1.23568e-06
6.80505e-07
-1.38248e-06
-1.52852e-06
7.41845e-07
2.07529e-10
6.81921e-10
8.77063e-10
1.62688e-09
2.08999e-09
2.09915e-09
3.93789e-09
1.93548e-09
6.5236e-09
9.41154e-10
9.96207e-09
-1.11403e-09
1.43815e-08
-4.49994e-09
1.99239e-08
-9.53053e-09
2.67464e-08
-1.65683e-08
3.50214e-08
-2.60284e-08
4.49367e-08
-3.83827e-08
5.66954e-08
-5.41621e-08
7.05144e-08
-7.39583e-08
8.6622e-08
-9.84234e-08
1.05255e-07
-1.28265e-07
1.26651e-07
-1.64242e-07
1.51042e-07
-2.07145e-07
1.78646e-07
-2.57784e-07
2.09647e-07
-3.16955e-07
2.44183e-07
-3.85406e-07
2.82324e-07
-4.63783e-07
3.24034e-07
-5.52548e-07
3.69174e-07
-6.51935e-07
4.17477e-07
-7.61877e-07
4.6854e-07
-8.81938e-07
5.2182e-07
-1.01123e-06
5.76677e-07
-1.14839e-06
6.32514e-07
-1.29151e-06
6.88679e-07
-1.43864e-06
-1.58454e-06
7.44696e-07
2.18549e-10
4.63372e-10
9.23251e-10
9.22175e-10
2.1993e-09
8.23101e-10
4.14246e-09
-7.68191e-12
6.86003e-09
-1.77641e-09
1.04717e-08
-4.72576e-09
1.51108e-08
-9.13895e-09
2.09244e-08
-1.53441e-08
2.80747e-08
-2.37186e-08
3.67388e-08
-3.46926e-08
4.7109e-08
-4.87528e-08
5.93912e-08
-6.64443e-08
7.3804e-08
-8.83711e-08
9.05751e-08
-1.15194e-07
1.09937e-07
-1.47627e-07
1.32119e-07
-1.86424e-07
1.57342e-07
-2.32367e-07
1.858e-07
-2.86242e-07
2.17652e-07
-3.48807e-07
2.52999e-07
-4.20753e-07
2.91857e-07
-5.02641e-07
3.34139e-07
-5.9483e-07
3.79642e-07
-6.97438e-07
4.28031e-07
-8.10266e-07
4.78827e-07
-9.32734e-07
5.3141e-07
-1.06382e-06
5.85067e-07
-1.20205e-06
6.3906e-07
-1.34551e-06
6.92486e-07
-1.49207e-06
-1.63647e-06
7.44415e-07
2.30211e-10
2.33161e-10
9.71822e-10
1.80564e-10
2.31368e-09
-5.18759e-10
4.35551e-09
-2.04951e-09
7.20884e-09
-4.62974e-09
1.09979e-08
-8.5148e-09
1.58604e-08
-1.40015e-08
2.19483e-08
-2.1432e-08
2.94281e-08
-3.11984e-08
3.84811e-08
-4.37456e-08
4.93025e-08
-5.95742e-08
6.21004e-08
-7.92422e-08
7.70933e-08
-1.03364e-07
9.45062e-08
-1.32607e-07
1.14565e-07
-1.67686e-07
1.3749e-07
-2.09349e-07
1.63484e-07
-2.58361e-07
1.92718e-07
-3.15477e-07
2.2532e-07
-3.81409e-07
2.6135e-07
-4.56782e-07
3.00768e-07
-5.42059e-07
3.43434e-07
-6.37496e-07
3.89083e-07
-7.43086e-07
4.3731e-07
-8.58493e-07
4.87562e-07
-9.82986e-07
5.39153e-07
-1.11541e-06
5.91306e-07
-1.2542e-06
6.43186e-07
-1.39739e-06
6.93825e-07
-1.54271e-06
-1.68503e-06
7.4238e-07
2.42528e-10
-9.36758e-12
1.02281e-09
-5.99714e-10
2.43318e-09
-1.92914e-09
4.57712e-09
-4.19345e-09
7.57011e-09
-7.62272e-09
1.15405e-08
-1.24852e-08
1.66302e-08
-1.90911e-08
2.29952e-08
-2.7797e-08
3.08057e-08
-3.9009e-08
4.02462e-08
-5.31861e-08
5.1514e-08
-7.0842e-08
6.48176e-08
-9.25459e-08
8.03741e-08
-1.1892e-07
9.84039e-08
-1.50637e-07
1.19125e-07
-1.88407e-07
1.42743e-07
-2.32967e-07
1.69441e-07
-2.85059e-07
1.99366e-07
-3.45402e-07
2.32611e-07
-4.14653e-07
2.69185e-07
-4.93356e-07
3.09001e-07
-5.81875e-07
3.51863e-07
-6.80357e-07
3.97442e-07
-7.88666e-07
4.45268e-07
-9.0632e-07
4.94725e-07
-1.03244e-06
5.45081e-07
-1.16576e-06
5.95518e-07
-1.30464e-06
6.45176e-07
-1.44704e-06
6.93135e-07
-1.59067e-06
-1.73061e-06
7.38717e-07
2.55473e-10
-2.6484e-10
1.07612e-09
-1.42036e-09
2.5576e-09
-3.41062e-09
4.80689e-09
-6.44275e-09
7.94316e-09
-1.0759e-08
1.20985e-08
-1.66405e-08
1.74184e-08
-2.44111e-08
2.40624e-08
-3.44411e-08
3.22038e-08
-4.71504e-08
4.2029e-08
-6.30112e-08
5.37362e-08
-8.25492e-08
6.75332e-08
-1.06343e-07
8.36336e-08
-1.35021e-07
1.02251e-07
-1.69255e-07
1.23593e-07
-2.09749e-07
1.47849e-07
-2.57223e-07
1.7518e-07
-3.12391e-07
2.05705e-07
-3.75926e-07
2.39474e-07
-4.48423e-07
2.76451e-07
-5.30333e-07
3.165e-07
-6.21924e-07
3.59367e-07
-7.23224e-07
4.04665e-07
-8.33964e-07
4.51864e-07
-9.53519e-07
5.003e-07
-1.08088e-06
5.49211e-07
-1.21467e-06
5.9777e-07
-1.3532e-06
6.45134e-07
-1.49441e-06
6.90478e-07
-1.63601e-06
-1.77344e-06
7.33309e-07
2.69006e-10
-5.33846e-10
1.13157e-09
-2.28292e-09
2.68649e-09
-4.96553e-09
5.04401e-09
-8.80027e-09
8.32663e-09
-1.40416e-08
1.26697e-08
-2.09836e-08
1.82221e-08
-2.99634e-08
2.51459e-08
-4.13648e-08
3.36165e-08
-5.5621e-08
4.38214e-08
-7.32161e-08
5.59586e-08
-9.46864e-08
7.02335e-08
-1.20618e-07
8.68543e-08
-1.51642e-07
1.06026e-07
-1.88427e-07
1.27943e-07
-2.31666e-07
1.52776e-07
-2.82057e-07
1.80662e-07
-3.40277e-07
2.11686e-07
-4.0695e-07
2.45856e-07
-4.82593e-07
2.83091e-07
-5.67568e-07
3.23205e-07
-6.62037e-07
3.65889e-07
-7.65908e-07
4.107e-07
-8.78776e-07
4.57057e-07
-9.99875e-07
5.04267e-07
-1.12809e-06
5.51553e-07
-1.26196e-06
5.98098e-07
-1.39975e-06
6.43109e-07
-1.53942e-06
6.85866e-07
-1.67877e-06
-1.81363e-06
7.26054e-07
2.83055e-10
-8.16901e-10
1.18888e-09
-3.18875e-09
2.8192e-09
-6.59585e-09
5.28727e-09
-1.12683e-08
8.71858e-09
-1.74729e-08
1.32514e-08
-2.55164e-08
1.9037e-08
-3.5749e-08
2.62396e-08
-4.85675e-08
3.50359e-08
-6.44172e-08
4.56133e-08
-8.37936e-08
5.81682e-08
-1.07241e-07
7.29018e-08
-1.35351e-07
9.00155e-08
-1.68755e-07
1.09704e-07
-2.08115e-07
1.32144e-07
-2.54106e-07
1.57488e-07
-3.07401e-07
1.85844e-07
-3.68633e-07
2.17261e-07
-4.38367e-07
2.51705e-07
-5.17036e-07
2.89049e-07
-6.04912e-07
3.29058e-07
-7.02047e-07
3.71373e-07
-8.08223e-07
4.15498e-07
-9.22901e-07
4.60816e-07
-1.04519e-06
5.06613e-07
-1.17389e-06
5.52116e-07
-1.30746e-06
5.96534e-07
-1.44416e-06
6.39137e-07
-1.58202e-06
6.79319e-07
-1.71895e-06
-1.85122e-06
7.16917e-07
2.97532e-10
-1.11443e-09
1.24769e-09
-4.13891e-09
2.95493e-09
-8.30309e-09
5.5352e-09
-1.38486e-08
9.1166e-09
-2.10543e-08
1.38398e-08
-3.02396e-08
1.98579e-08
-4.17672e-08
2.73366e-08
-5.60462e-08
3.64527e-08
-7.35333e-08
4.73926e-08
-9.47335e-08
6.03495e-08
-1.20198e-07
7.55189e-08
-1.50521e-07
9.30934e-08
-1.8633e-07
1.13254e-07
-2.28276e-07
1.36162e-07
-2.77014e-07
1.61944e-07
-3.33183e-07
1.9068e-07
-3.97369e-07
2.22378e-07
-4.70065e-07
2.56964e-07
-5.51623e-07
2.94269e-07
-6.42216e-07
3.34007e-07
-7.41785e-07
3.75769e-07
-8.49986e-07
4.19019e-07
-9.6615e-07
4.63114e-07
-1.08929e-06
5.07333e-07
-1.2181e-06
5.50915e-07
-1.35104e-06
5.93111e-07
-1.48636e-06
6.33265e-07
-1.62218e-06
6.70877e-07
-1.75656e-06