/*--------------------------------*- C++ -*----------------------------------*\
| =========                 |                                                 |
| \\      /  F ield         | foam-extend: Open Source CFD                    |
|  \\    /   O peration     | Version:     4.0                                |
|   \\  /    A nd           | Web:         http://www.foam-extend.org         |
|    \\/     M anipulation  |                                                 |
\*---------------------------------------------------------------------------*/
FoamFile
{
    version     2.0;
    format      ascii;
    class       volVectorField;
    location    "30";
    object      U;
}
// * * * * * * * * * * * * * * * * * * * * * * * * * * * * * * * * * * * * * //

dimensions      [0 1 -1 0 0 0 0];

internalField   nonuniform List<vector> 
36000
(
(-4.79145e-07 2.19577e-06 -2.27043e-25)
(-4.71389e-06 6.17731e-06 2.34416e-25)
(-1.34376e-05 9.86771e-06 0)
(-2.6641e-05 1.32477e-05 0)
(-4.42022e-05 1.62992e-05 -2.05917e-25)
(-6.6e-05 1.90045e-05 -1.95701e-25)
(-9.18842e-05 2.13464e-05 0)
(-0.000121639 2.33089e-05 0)
(-0.000154973 2.48774e-05 0)
(-0.000191521 2.60385e-05 0)
(-0.000230837 2.67799e-05 0)
(-0.000272389 2.70904e-05 -2.73633e-25)
(-0.000315563 2.69598e-05 -4.06657e-28)
(-0.00035965 2.6379e-05 -2.38567e-25)
(-0.000403852 2.53393e-05 2.21182e-25)
(-0.000447273 2.38329e-05 -2.0575e-25)
(-0.000488918 2.18522e-05 3.80331e-25)
(-0.000527694 1.93902e-05 -1.74232e-25)
(-0.000562405 1.644e-05 1.61507e-25)
(-0.000591751 1.29956e-05 4.40371e-25)
(-0.000614333 9.05121e-06 -2.37016e-27)
(-0.000628649 4.60083e-06 4.83097e-25)
(-0.000633085 -2.9947e-07 -1.10573e-25)
(-0.000626182 -5.67075e-06 -1.91656e-25)
(-0.000606074 -1.15384e-05 -1.70398e-25)
(-0.000571075 -1.78347e-05 0)
(-0.00051949 -2.45039e-05 0)
(-0.000449722 -3.14734e-05 0)
(-0.000360474 -3.86431e-05 9.13149e-26)
(-0.00024987 -4.59268e-05 -1.58744e-25)
(-7.04119e-07 6.60399e-06 0)
(-5.30511e-06 1.85813e-05 0)
(-1.43098e-05 2.96858e-05 0)
(-2.77077e-05 3.98586e-05 8.68671e-25)
(-4.53769e-05 4.90452e-05 -2.02255e-25)
(-6.71961e-05 5.71911e-05 1.95679e-25)
(-9.30142e-05 6.42442e-05 0)
(-0.000122615 7.01559e-05 0)
(-0.000155709 7.48813e-05 -6.63822e-25)
(-0.00019193 7.83794e-05 6.22598e-25)
(-0.000230832 8.06124e-05 -5.85973e-25)
(-0.000271885 8.15459e-05 5.47966e-25)
(-0.000314474 8.11488e-05 2.55896e-25)
(-0.000357893 7.93929e-05 2.40143e-25)
(-0.000401344 7.62519e-05 4.44527e-25)
(-0.00044393 7.17015e-05 0)
(-0.000484659 6.57186e-05 -1.13935e-24)
(-0.000522436 5.8282e-05 5.6184e-27)
(-0.000556067 4.93718e-05 1.28874e-24)
(-0.000584254 3.89706e-05 -8.87933e-25)
(-0.0006056 2.70663e-05 -5.38814e-25)
(-0.000618613 1.36565e-05 4.83364e-25)
(-0.000621697 -1.18408e-06 -4.4387e-25)
(-0.000613294 -1.74349e-05 7.86949e-25)
(-0.000591652 -3.51227e-05 6.78648e-27)
(-0.000555071 -5.41111e-05 6.10605e-25)
(-0.000501871 -7.42251e-05 -8.07805e-25)
(-0.00043047 -9.52402e-05 0)
(-0.000339648 -0.000116853 0)
(-0.0002272 -0.000138808 0)
(-1.14846e-06 1.09116e-05 9.17558e-25)
(-6.47293e-06 3.07081e-05 8.18987e-27)
(-1.60327e-05 4.90699e-05 -1.36561e-24)
(-2.98145e-05 6.58985e-05 1.74775e-24)
(-4.76965e-05 8.11023e-05 -2.06699e-24)
(-6.95564e-05 9.45899e-05 -1.58078e-24)
(-9.52423e-05 0.000106273 2.98757e-24)
(-0.000124538 0.000116071 -1.40915e-24)
(-0.000157153 0.000123907 0)
(-0.000192722 0.000129712 0)
(-0.000230801 0.000133421 0)
(-0.000270861 0.000134976 0)
(-0.000312288 0.000134324 1.02969e-24)
(-0.000354377 0.000131418 -2.39838e-24)
(-0.00039633 0.000126211 1.78952e-24)
(-0.000437255 0.000118663 0)
(-0.000476158 0.000108735 7.63087e-25)
(-0.000511947 9.63906e-05 -7.08182e-25)
(-0.000543428 8.15966e-05 0)
(-0.000569305 6.43252e-05 0)
(-0.000588186 4.45586e-05 2.69587e-24)
(-0.000598588 2.22962e-05 -1.47791e-24)
(-0.000598937 -2.36608e-06 0)
(-0.00058762 -2.9403e-05 -1.07045e-26)
(-0.000562938 -5.87768e-05 -7.15059e-25)
(-0.000523215 -9.03014e-05 -6.41591e-25)
(-0.000466807 -0.000123692 5.01896e-25)
(-0.000392168 -0.000158573 4.53241e-25)
(-0.000298237 -0.000194442 0)
(-0.000182115 -0.000230885 9.63947e-25)
(-1.79985e-06 1.50544e-05 0)
(-8.18527e-06 4.23808e-05 0)
(-1.85589e-05 6.77423e-05 4.5798e-25)
(-3.29033e-05 9.1001e-05 -1.76326e-24)
(-5.10962e-05 0.000112028 3.34659e-24)
(-7.30137e-05 0.000130693 -2.38418e-24)
(-9.8502e-05 0.000146873 0)
(-0.000127344 0.000160452 0)
(-0.000159249 0.000171321 -2.01933e-24)
(-0.000193852 0.00017938 2.52564e-24)
(-0.000230711 0.000184539 -1.18422e-24)
(-0.000269297 0.000186712 -1.11577e-24)
(-0.000308999 0.000185825 2.0745e-24)
(-0.000349113 0.000181806 -1.9347e-24)
(-0.000388844 0.000174592 -8.95958e-25)
(-0.0004273 0.000164122 0)
(-0.00046349 0.000150342 -3.08899e-24)
(-0.000496323 0.000133199 -2.68733e-27)
(-0.000524607 0.000112646 2.61492e-24)
(-0.00054705 8.86452e-05 -2.91534e-28)
(-0.000562265 6.11715e-05 -4.70796e-27)
(-0.000568779 3.02415e-05 -2.06606e-26)
(-0.000565039 -4.06297e-06 -9.03247e-25)
(-0.000549413 -4.16905e-05 1.61054e-24)
(-0.000520237 -8.2533e-05 0)
(-0.000475868 -0.000126347 2.27814e-26)
(-0.000414715 -0.000172742 2.17932e-24)
(-0.00033529 -0.00022119 -9.97464e-25)
(-0.000236798 -0.000270989 -2.44539e-24)
(-0.000115213 -0.000321578 -2.0006e-24)
(-2.64039e-06 1.89727e-05 1.40641e-24)
(-1.03954e-05 5.34342e-05 -2.91173e-24)
(-2.18196e-05 8.54431e-05 1.85566e-24)
(-3.68897e-05 0.000114822 1.78363e-24)
(-5.54819e-05 0.000141404 -1.68728e-24)
(-7.74696e-05 0.000165022 7.99191e-25)
(-0.000102696 0.000185513 -2.28481e-24)
(-0.000130941 0.000202726 5.75248e-24)
(-0.000161915 0.000216519 -6.68076e-25)
(-0.000195252 0.00022676 1.28328e-24)
(-0.00023051 0.000233329 -1.20428e-24)
(-0.000267163 0.000236113 1.11565e-24)
(-0.000304601 0.000235012 0)
(-0.000342122 0.000229932 0)
(-0.000378932 0.000220788 3.64039e-24)
(-0.000414142 0.000207499 -1.68714e-24)
(-0.000446762 0.000189991 1.55072e-24)
(-0.000475705 0.000168198 1.43017e-24)
(-0.00049978 0.000142057 -2.64488e-24)
(-0.000517701 0.000111518 -3.62509e-24)
(-0.00052809 7.65586e-05 1.11227e-24)
(-0.000529488 3.72019e-05 4.00294e-24)
(-0.000520352 -6.48734e-06 -1.83056e-24)
(-0.000499061 -5.44166e-05 2.62878e-26)
(-0.000463989 -0.000106429 1.4579e-24)
(-0.000413537 -0.000162195 -1.2873e-24)
(-0.00034617 -0.000221222 -1.07994e-24)
(-0.000260479 -0.000282824 6.52707e-26)
(-0.000156077 -0.000346081 8.05604e-25)
(-2.73812e-05 -0.000410181 1.34419e-24)
(-3.64728e-06 2.26128e-05 4.27398e-24)
(-1.30435e-05 6.37185e-05 -9.80649e-25)
(-2.57266e-05 0.000101936 0)
(-4.16648e-05 0.000137049 -9.09198e-25)
(-6.07319e-05 0.000168851 -4.30508e-24)
(-8.27966e-05 0.000197136 4.88932e-24)
(-0.000107697 0.000221703 2.3236e-24)
(-0.00013521 0.000242363 -1.43993e-24)
(-0.000165044 0.000258939 1.38458e-24)
(-0.000196832 0.000271266 -6.44555e-24)
(-0.000230131 0.000279191 3.62426e-24)
(-0.000264418 0.000282572 -1.12695e-24)
(-0.000299082 0.000281281 4.23752e-24)
(-0.000333424 0.0002752 -1.97603e-24)
(-0.000366651 0.000264217 -5.51158e-24)
(-0.000397875 0.000248233 3.40848e-24)
(-0.00042611 0.000227154 -3.15402e-24)
(-0.00045027 0.000200895 -6.12525e-27)
(-0.000469172 0.000169375 -1.36754e-24)
(-0.000481533 0.000132544 -1.21972e-24)
(-0.00048599 9.03752e-05 4.47792e-24)
(-0.000481092 4.28833e-05 -4.07344e-24)
(-0.00046531 -9.86233e-06 0)
(-0.000437067 -6.77369e-05 -1.67961e-24)
(-0.000394774 -0.00013052 -1.51155e-24)
(-0.000336869 -0.000197807 -2.67402e-24)
(-0.000261903 -0.000269001 2.30702e-24)
(-0.000168526 -0.00034326 0)
(-5.69002e-05 -0.000419446 4.17641e-24)
(8.0223e-05 -0.000496257 -7.38277e-25)
(-4.79362e-06 2.59279e-05 0)
(-1.60591e-05 7.31036e-05 0)
(-3.01753e-05 0.000117014 0)
(-4.70997e-05 0.000157405 -1.58024e-26)
(-6.67016e-05 0.000194029 6.11707e-24)
(-8.8843e-05 0.000226641 -4.93978e-24)
(-0.000113355 0.000255002 3.1349e-24)
(-0.000140008 0.000278883 -5.90597e-24)
(-0.000168507 0.00029807 -1.40308e-24)
(-0.000198484 0.000312363 -2.61974e-24)
(-0.000229493 0.000321573 2.45338e-24)
(-0.00026101 0.000325527 1.15757e-24)
(-0.000292425 0.000324068 1.65145e-26)
(-0.000323039 0.000317048 0)
(-0.000352062 0.000304332 -2.64761e-26)
(-0.000378607 0.000285796 1.70861e-24)
(-0.000401692 0.000261322 -1.59356e-24)
(-0.00042023 0.00023081 1.46618e-24)
(-0.000433047 0.000194168 5.43831e-24)
(-0.000438872 0.000151332 -3.63839e-26)
(-0.000436349 0.00010227 -2.33006e-24)
(-0.000424042 4.69959e-05 -2.04852e-24)
(-0.000400449 -1.44131e-05 5.97038e-28)
(-0.000364031 -8.18001e-05 -1.73851e-24)
(-0.000313259 -0.000154872 -3.04428e-24)
(-0.000246635 -0.000233163 4.02911e-24)
(-0.000162798 -0.000315967 -1.10964e-24)
(-6.04456e-05 -0.000402296 -1.96451e-24)
(5.96634e-05 -0.000490889 -3.34589e-24)
(0.000206489 -0.000579508 1.527e-24)
(-6.04942e-06 2.88797e-05 -3.95218e-24)
(-1.93632e-05 8.14807e-05 0)
(-3.50485e-05 0.000130504 -3.92836e-24)
(-5.30491e-05 0.000175655 4.64831e-24)
(-7.32275e-05 0.000216649 -5.31293e-24)
(-9.54362e-05 0.0002532 6.72533e-24)
(-0.000119496 0.000285029 -6.36161e-24)
(-0.00014517 0.000311867 1.4807e-24)
(-0.000172156 0.000333461 2.80104e-24)
(-0.000200079 0.000349573 -2.04078e-26)
(-0.000228494 0.000359978 -5.00469e-24)
(-0.000256872 0.00036447 4.66769e-24)
(-0.000284602 0.000362858 -4.36167e-24)
(-0.000310985 0.000354963 -8.12666e-24)
(-0.000335231 0.000340623 5.65945e-24)
(-0.000356455 0.000319689 1.74132e-24)
(-0.000373675 0.000292021 -4.88831e-24)
(-0.000385813 0.000257498 -3.02617e-24)
(-0.0003917 0.000216015 -2.74054e-24)
(-0.000390073 0.000167496 7.59493e-24)
(-0.000379589 0.000111903 -2.37545e-24)
(-0.000358836 4.9254e-05 6.63712e-28)
(-0.000326345 -2.03618e-05 -3.90394e-24)
(-0.000280625 -9.67502e-05 6.89151e-24)
(-0.000220214 -0.000179565 3.04454e-24)
(-0.000143701 -0.000268258 -2.69892e-24)
(-4.98412e-05 -0.000362016 9.69325e-26)
(6.2595e-05 -0.000459689 2.15181e-24)
(0.000192383 -0.000560022 3.49721e-24)
(0.000350109 -0.000659588 -4.66311e-24)
(-7.38258e-06 3.14386e-05 4.04885e-24)
(-2.28711e-05 8.87652e-05 -5.23893e-24)
(-4.022e-05 0.000142267 -4.0075e-24)
(-5.93561e-05 0.000191612 3.79839e-24)
(-8.01323e-05 0.000236476 3.62153e-24)
(-0.000102388 0.000276534 -1.68969e-24)
(-0.000125931 0.000311465 0)
(-0.000150513 0.000340961 0)
(-0.000175821 0.000364727 1.4261e-24)
(-0.000201475 0.000382486 2.68024e-24)
(-0.00022702 0.000393976 7.58384e-24)
(-0.000251924 0.000398954 -4.74158e-24)
(-0.000275574 0.000397192 -3.67797e-26)
(-0.000297269 0.000388481 4.12751e-24)
(-0.000316216 0.00037263 -1.94416e-24)
(-0.000331532 0.000349461 -3.57077e-24)
(-0.000342239 0.00031881 9.90517e-24)
(-0.000347261 0.000280536 3.00992e-24)
(-0.000345435 0.000234516 1.69012e-26)
(-0.000335511 0.000180667 9.84956e-27)
(-0.000316164 0.000118946 -3.55515e-26)
(-0.000286009 4.93749e-05 2.13607e-24)
(-0.00024362 -2.79391e-05 5.84708e-24)
(-0.000187566 -0.000112765 8.25442e-26)
(-0.000116462 -0.000204701 3.1071e-24)
(-2.89924e-05 -0.000303117 -8.46019e-24)
(7.59494e-05 -0.000407093 -4.8411e-24)
(0.000199426 -0.000515313 1.1899e-25)
(0.000339796 -0.000626496 1.92634e-24)
(0.000509535 -0.00073619 3.07916e-24)
(-8.76001e-06 3.35843e-05 -3.09582e-24)
(-2.6495e-05 9.48973e-05 5.3348e-24)
(-4.55583e-05 0.000152205 -2.06599e-24)
(-6.58565e-05 0.000205138 5.8576e-24)
(-8.72293e-05 0.000253335 -3.68253e-24)
(-0.0001095 0.00029643 -1.72961e-24)
(-0.000132458 0.000334062 -6.6083e-24)
(-0.000155841 0.000365883 6.21769e-24)
(-0.000179322 0.000391557 -2.95689e-24)
(-0.000202509 0.000410765 0)
(-0.000224939 0.000423206 -5.15886e-24)
(-0.000246072 0.000428597 4.8245e-24)
(-0.00026529 0.000426676 -2.27127e-24)
(-0.000281886 0.0004172 4.20229e-24)
(-0.000295067 0.000399946 1.93771e-24)
(-0.00030395 0.000374706 0)
(-0.000307553 0.00034129 5.96516e-26)
(-0.000304807 0.000299533 0)
(-0.000294557 0.000249302 5.33151e-26)
(-0.000275566 0.0001905 5.27868e-24)
(-0.000246535 0.000123085 4.84538e-24)
(-0.000206112 4.70834e-05 2.15134e-24)
(-0.00015292 -3.7375e-05 -1.19419e-23)
(-8.56019e-05 -0.000130021 8.1128e-26)
(-2.85923e-06 -0.000230395 0)
(9.65097e-05 -0.000337789 5.77697e-24)
(0.000213449 -0.000451173 1.91478e-26)
(0.000348847 -0.000569088 6.83386e-24)
(0.00050054 -0.000690166 0)
(0.000683133 -0.000808964 -3.32917e-24)
(-1.01487e-05 3.53058e-05 1.09718e-24)
(-3.01467e-05 9.98423e-05 2.21856e-24)
(-5.09307e-05 0.000160256 4.1792e-24)
(-7.23836e-05 0.000216144 -1.19263e-23)
(-9.43277e-05 0.000267107 5.61961e-24)
(-0.000116566 0.00031274 -5.3354e-24)
(-0.000138867 0.000352643 1.34652e-23)
(-0.000160947 0.000386427 -6.34061e-24)
(-0.000182463 0.000413714 5.97099e-24)
(-0.000203009 0.000434146 0)
(-0.000222106 0.00044738 0)
(-0.000239206 0.000453094 7.39248e-24)
(-0.000253682 0.000450987 -1.8152e-27)
(-0.000264818 0.000440784 -4.27779e-24)
(-0.000271821 0.000422225 4.01117e-26)
(-0.000273799 0.00039507 -3.02455e-26)
(-0.000269768 0.000359105 -6.81005e-24)
(-0.000258669 0.000314143 3.17175e-24)
(-0.000239355 0.000260036 -2.89215e-24)
(-0.000210609 0.000196679 2.68755e-24)
(-0.000171158 0.000124028 -9.82021e-24)
(-0.000119691 4.21199e-05 -9.01056e-24)
(-5.48905e-05 -4.88908e-05 4.20561e-24)
(2.45178e-05 -0.000148693 7.47932e-24)
(0.00011973 -0.000256771 -3.36899e-24)
(0.000231809 -0.000372328 -2.92796e-24)
(0.000361525 -0.00049424 0)
(0.000509594 -0.000620908 -4.54192e-24)
(0.000673221 -0.000750924 0)
(0.000869287 -0.000877678 4.97917e-24)
(-1.15166e-05 3.66011e-05 -2.14314e-24)
(-3.37401e-05 0.00010359 6.77177e-24)
(-5.62068e-05 0.000166398 -8.48934e-24)
(-7.87721e-05 0.000224591 -4.54603e-26)
(-0.000101237 0.000277732 3.84973e-24)
(-0.00012338 0.000325382 -9.08721e-24)
(-0.000144943 0.000367101 6.86698e-24)
(-0.000165619 0.00040246 0)
(-0.000185044 0.000431043 3.07466e-24)
(-0.000202789 0.000452447 -8.59522e-24)
(-0.000218363 0.000466291 0)
(-0.000231201 0.000472214 -1.00102e-23)
(-0.000240663 0.000469875 4.67368e-24)
(-0.000246026 0.000458965 -4.39555e-24)
(-0.000246484 0.000439183 -3.97426e-24)
(-0.000241136 0.000410261 7.49521e-24)
(-0.000229005 0.000371958 0)
(-0.000209035 0.000324068 3.25621e-24)
(-0.000180093 0.000266428 5.9347e-24)
(-0.000140982 0.000198924 -1.10297e-23)
(-9.04621e-05 0.000121513 5.00077e-24)
(-2.72692e-05 3.42471e-05 -4.64024e-24)
(4.98463e-05 -6.26951e-05 -4.15387e-24)
(0.00014206 -0.000168952 -3.82894e-24)
(0.00025045 -0.000283947 -8.3059e-26)
(0.000375932 -0.000406807 0)
(0.000519077 -0.00053631 -5.50052e-24)
(0.000680417 -0.000670718 0)
(0.000856434 -0.000808647 0)
(0.00106639 -0.000942146 3.44155e-24)
(-1.28335e-05 3.74766e-05 2.25131e-24)
(-3.71933e-05 0.000106153 -2.32722e-24)
(-6.12614e-05 0.000170645 -1.09198e-23)
(-8.48621e-05 0.000230487 1.03538e-23)
(-0.000107771 0.00028521 -9.81852e-24)
(-0.000129737 0.000334339 1.11925e-23)
(-0.000150473 0.000377401 -7.01889e-24)
(-0.000169642 0.000413927 1.32121e-23)
(-0.000186853 0.000443463 -6.20748e-24)
(-0.000201656 0.000465566 2.88445e-24)
(-0.000213536 0.000479814 2.70034e-24)
(-0.000221914 0.000485806 -5.14918e-24)
(-0.000226126 0.00048317 0)
(-0.000225439 0.000471547 4.44022e-24)
(-0.000219025 0.000450606 4.03258e-26)
(-0.000205987 0.00042005 7.69708e-24)
(-0.000185349 0.000379612 -7.14425e-24)
(-0.000156058 0.000329067 3.30405e-24)
(-0.000116995 0.000268235 -6.00808e-24)
(-6.69874e-05 0.000196997 1.114e-23)
(-4.83271e-06 0.000115314 0)
(7.06763e-05 2.32551e-05 0)
(0.000160705 -7.89662e-05 8.47341e-24)
(0.000266333 -0.000190947 3.76177e-24)
(0.000388501 -0.000312045 -6.99036e-24)
(0.000527955 -0.000441304 -3.17671e-24)
(0.000685045 -0.000577409 5.49818e-24)
(0.000860101 -0.000718485 4.9999e-24)
(0.0010488 -0.00086323 4.38078e-24)
(0.00127287 -0.00100221 -3.71672e-24)
(-1.40718e-05 3.79457e-05 -1.13677e-23)
(-4.043e-05 0.000107564 2.32721e-24)
(-6.59766e-05 0.00017304 0)
(-9.05013e-05 0.000233882 0)
(-0.000113751 0.00028959 -8.04614e-24)
(-0.00013544 0.000339657 3.83782e-24)
(-0.000155247 0.000383576 0)
(-0.000172801 0.000420845 0)
(-0.000187679 0.000450973 -3.13465e-24)
(-0.000199406 0.000473478 8.94058e-24)
(-0.000207444 0.000487902 -5.34896e-26)
(-0.00021118 0.000493805 2.62643e-24)
(-0.000209932 0.000490773 -4.35173e-26)
(-0.000202941 0.00047841 -8.99503e-24)
(-0.000189378 0.000456356 8.4508e-24)
(-0.000168338 0.000424282 7.14174e-26)
(-0.000138841 0.000381899 3.58698e-24)
(-9.98407e-05 0.000328959 1.34481e-23)
(-5.0233e-05 0.000265273 -1.85713e-23)
(1.11256e-05 0.000190715 0)
(8.53946e-05 0.000105254 0)
(0.000173719 8.98002e-06 9.60932e-24)
(0.000277171 -9.78597e-05 -4.39733e-24)
(0.00039672 -0.000214813 4.01329e-24)
(0.000533152 -0.000341171 -3.5428e-24)
(0.000687024 -0.00047589 1.92995e-23)
(0.000858433 -0.000617566 -9.59869e-26)
(0.0010475 -0.000764192 -7.58441e-24)
(0.00124901 -0.000914581 1.45026e-25)
(0.0014872 -0.00105775 7.43156e-24)
(-1.52062e-05 3.80276e-05 -6.98029e-24)
(-4.33806e-05 0.000107873 9.64593e-24)
(-7.02433e-05 0.000173658 0)
(-9.55466e-05 0.000234866 -8.69233e-24)
(-0.000119004 0.00029097 4.06549e-24)
(-0.000140293 0.000341434 0)
(-0.000159053 0.000385719 3.69718e-24)
(-0.000174878 0.000423293 -3.47692e-24)
(-0.000187308 0.000453633 -3.19949e-24)
(-0.000195836 0.000476233 -2.99981e-24)
(-0.000199879 0.000490588 2.80796e-24)
(-0.0001988 0.000496217 -1.05964e-23)
(-0.000191897 0.000492667 9.88563e-24)
(-0.000178394 0.000479517 4.64634e-24)
(-0.000157446 0.000456374 -8.56436e-24)
(-0.000128134 0.000422882 7.1949e-26)
(-8.9478e-05 0.000378725 -7.36252e-24)
(-4.04363e-05 0.000323641 -6.73832e-24)
(2.00766e-05 0.000257426 6.27099e-24)
(9.31729e-05 0.000179957 5.82283e-24)
(0.000179964 9.1211e-05 1.07082e-23)
(0.000281519 -8.69875e-06 -9.75274e-24)
(0.000398814 -0.000119486 0)
(0.000532688 -0.000240646 -8.03388e-24)
(0.000683756 -0.000371399 -3.71924e-24)
(0.000852364 -0.000510614 -3.0913e-24)
(0.00103833 -0.000656797 8.78414e-24)
(0.00124155 -0.000807807 -5.1426e-24)
(0.00145581 -0.000962625 -4.25908e-24)
(0.00170794 -0.00110864 4.06092e-24)
(-1.62157e-05 3.77471e-05 -2.3641e-24)
(-4.59861e-05 0.000107144 2.49849e-24)
(-7.3969e-05 0.000172593 -2.37192e-24)
(-9.98761e-05 0.000233556 -2.24696e-24)
(-0.000123383 0.000289485 4.15712e-24)
(-0.000144128 0.000339818 1.19381e-23)
(-0.000161706 0.000383992 -1.49459e-23)
(-0.000175668 0.000421444 3.47694e-24)
(-0.00018552 0.000451619 -3.26046e-24)
(-0.000190702 0.000473973 1.23552e-23)
(-0.000190606 0.000487976 -1.15581e-23)
(-0.000184565 0.000493118 5.35498e-24)
(-0.000171843 0.000488917 -1.5092e-23)
(-0.000151641 0.000474913 -9.36145e-24)
(-0.000123095 0.000450685 1.74469e-23)
(-8.52766e-05 0.00041585 4.07508e-24)
(-3.71999e-05 0.000370074 -1.50879e-23)
(2.21683e-05 0.000313077 1.39445e-23)
(9.38941e-05 0.000244649 -6.42998e-24)
(0.000179054 0.000164668 -5.97103e-24)
(0.000278705 7.31245e-05 1.02216e-25)
(0.000393828 -2.98396e-05 0)
(0.000525297 -0.000143898 4.59979e-24)
(0.000673801 -0.000268491 0)
(0.000839766 -0.000402764 7.4188e-24)
(0.0010233 -0.000545492 1.58137e-25)
(0.00122392 -0.000695093 0)
(0.00144127 -0.000849287 1.42516e-25)
(0.00166806 -0.00100728 -4.565e-24)
(0.00193373 -0.00115478 4.18274e-24)
(-1.70834e-05 3.71349e-05 0)
(-4.81978e-05 0.000105458 -2.49849e-24)
(-7.70751e-05 0.000169964 -7.21932e-24)
(-0.000103383 0.000230102 1.5931e-23)
(-0.000126758 0.000285303 -1.29246e-23)
(-0.00014679 0.000334986 -3.99984e-24)
(-0.00016303 0.000378566 1.1406e-23)
(-0.000174983 0.000415457 -3.61979e-24)
(-0.000182105 0.000445077 3.39018e-24)
(-0.0001838 0.000466855 -6.30252e-24)
(-0.000179422 0.000480233 5.88451e-24)
(-0.000168266 0.000484676 -5.50336e-24)
(-0.000149562 0.000479666 -9.28368e-26)
(-0.000122484 0.000464719 9.0017e-27)
(-8.61477e-05 0.000439388 4.4857e-24)
(-3.96108e-05 0.000403269 0)
(1.81154e-05 0.000356009 7.57235e-24)
(8.80568e-05 0.000297315 -7.00879e-24)
(0.000171257 0.000226975 0)
(0.000268753 0.00014487 5.97059e-24)
(0.000381535 5.10112e-05 3.17448e-26)
(0.000510494 -5.4431e-05 -5.0987e-24)
(0.000656382 -0.000171087 -1.39722e-23)
(0.000819726 -0.000298335 -8.53825e-24)
(0.00100074 -0.000435243 0)
(0.00119927 -0.000580491 -6.82988e-24)
(0.00141449 -0.000732405 0)
(0.00164576 -0.000888562 -5.43178e-24)
(0.0018847 -0.00104845 0)
(0.0021633 -0.00119604 -8.37691e-24)
(-1.77955e-05 3.62242e-05 0)
(-4.99735e-05 0.000102903 0)
(-7.94901e-05 0.000165909 0)
(-0.000105968 0.00022468 -9.28639e-24)
(-0.000128997 0.000278631 1.31069e-23)
(-0.000148123 0.000327168 -8.27731e-24)
(-0.000162845 0.00036969 3.93107e-24)
(-0.000172619 0.000405592 7.3116e-24)
(-0.000176853 0.000434272 0)
(-0.000174907 0.000455135 -6.47956e-24)
(-0.000166094 0.000467601 1.19883e-23)
(-0.000149663 0.000471113 -2.25747e-26)
(-0.000124813 0.000465124 -1.09569e-26)
(-9.0688e-05 0.00044913 -4.81559e-24)
(-4.63784e-05 0.000422664 4.55474e-24)
(9.07076e-06 0.000385301 0)
(7.66527e-05 0.000336674 -1.55978e-23)
(0.000157384 0.000276485 1.4385e-23)
(0.000252283 0.000204519 -6.6583e-24)
(0.000362341 0.000120669 0)
(0.000488469 2.49681e-05 -5.61919e-24)
(0.000631464 -8.2382e-05 5.18909e-24)
(0.000791938 -0.000200964 4.66687e-24)
(0.000970236 -0.000330089 4.17064e-24)
(0.00116634 -0.000468745 0)
(0.0013798 -0.000615516 7.12444e-24)
(0.00160944 -0.000768637 0)
(0.00185423 -0.000925513 0)
(0.00210475 -0.00108601 5.27407e-24)
(0.00239546 -0.00123232 8.56458e-24)
(-1.83414e-05 3.50482e-05 0)
(-5.12796e-05 9.95707e-05 0)
(-8.11556e-05 0.000160568 0)
(-0.000107545 0.000217471 9.48596e-24)
(-0.000129991 0.000269687 8.94943e-24)
(-0.00014799 0.000316612 -1.27136e-23)
(-0.000160989 0.000357633 4.00165e-24)
(-0.000168392 0.000392132 -7.39169e-24)
(-0.000169556 0.000419494 6.9812e-24)
(-0.000163796 0.000439107 -1.31344e-23)
(-0.000150375 0.000450375 2.85271e-26)
(-0.0001285 0.000452717 2.6997e-26)
(-9.73329e-05 0.000445571 5.37223e-24)
(-5.59841e-05 0.000428416 0)
(-3.52087e-06 0.000400767 -1.37311e-23)
(6.10273e-05 0.000362186 8.53754e-24)
(0.000138657 0.000312299 7.83708e-24)
(0.000230373 0.000250802 -7.37436e-24)
(0.000337166 0.000177486 6.81388e-24)
(0.000459966 9.22595e-05 -6.21629e-24)
(0.000599608 -4.82031e-06 1.14614e-23)
(0.000756777 -0.000113515 -5.27711e-24)
(0.000931929 -0.000233353 0)
(0.0011252 -0.000363581 1.74084e-23)
(0.00133632 -0.000503102 -1.60587e-23)
(0.00156452 -0.0006504 -8.57321e-27)
(0.00180822 -0.000803618 -6.53427e-24)
(0.00206598 -0.000959981 -5.66059e-24)
(0.00232732 -0.00111982 -4.8892e-24)
(0.00262909 -0.00126346 0)
(-1.87135e-05 3.36407e-05 0)
(-5.20903e-05 9.55532e-05 0)
(-8.20248e-05 0.000154085 5.0562e-24)
(-0.000108044 0.000208668 -9.59626e-24)
(-0.000129645 0.000258702 -9.13255e-24)
(-0.00014627 0.00030358 1.28866e-23)
(-0.000157313 0.000342684 -4.08865e-24)
(-0.000162125 0.000375389 -7.60109e-24)
(-0.000160012 0.000401071 3.59431e-24)
(-0.000150238 0.000419109 0)
(-0.000132014 0.000428895 1.24293e-23)
(-0.000104506 0.000429831 -1.16242e-23)
(-6.68334e-05 0.000421349 0)
(-1.80741e-05 0.000402913 0)
(4.27299e-05 0.000374026 -4.71035e-24)
(0.000116564 0.000334246 -8.73999e-24)
(0.000204427 0.000283193 8.09838e-24)
(0.00030731 0.000220566 7.37462e-24)
(0.000426165 0.000146166 -1.37339e-23)
(0.000561858 5.99234e-05 -6.38117e-24)
(0.000715138 -3.80786e-05 5.87103e-24)
(0.000886558 -0.000147559 -5.32563e-24)
(0.0010764 -0.000267992 4.91245e-24)
(0.00128458 -0.000398551 0)
(0.00151053 -0.000538058 -4.10265e-27)
(0.00175315 -0.000684898 2.20229e-23)
(0.00201036 -0.000837103 -6.65616e-24)
(0.00228034 -0.00099175 0)
(0.00255157 -0.00114967 1.05191e-23)
(0.00286313 -0.00128931 -8.94647e-24)
(-1.89065e-05 3.20347e-05 0)
(-5.23865e-05 9.09425e-05 -1.10209e-23)
(-8.20603e-05 0.000146607 1.03603e-23)
(-0.000107406 0.000198463 4.98045e-24)
(-0.000127873 0.000245912 -9.33963e-24)
(-0.00014285 0.000288346 -4.33758e-24)
(-0.000151676 0.000325149 2.06019e-23)
(-0.000153649 0.000355695 -1.93916e-23)
(-0.000148021 0.000379356 1.09387e-23)
(-0.000134004 0.00039551 6.84597e-24)
(-0.000110756 0.000403542 6.39083e-24)
(-7.73983e-05 0.000402847 0)
(-3.30101e-05 0.000392851 -1.09823e-23)
(2.33651e-05 0.000373014 1.02434e-23)
(9.27107e-05 0.000342836 1.41957e-23)
(0.000176026 0.000301871 -8.9664e-24)
(0.00027431 0.000249743 1.29355e-25)
(0.000388534 0.000186158 -7.53988e-24)
(0.000519599 0.000110939 6.8775e-24)
(0.000668308 2.40332e-05 6.37855e-24)
(0.000835306 -7.44396e-05 9.19248e-26)
(0.001021 -0.000184153 0)
(0.00122547 -0.000304521 1.00171e-23)
(0.00144839 -0.000434646 0)
(0.00168886 -0.000573268 8.30419e-24)
(0.00194542 -0.000718673 1.24755e-25)
(0.00221543 -0.00086878 6.60541e-24)
(0.00249671 -0.00102055 -1.77965e-25)
(0.00277672 -0.00117534 -2.10344e-23)
(0.00309656 -0.00130968 1.36358e-23)
(-1.89173e-05 3.02613e-05 0)
(-5.21537e-05 8.58266e-05 -1.12482e-23)
(-8.12317e-05 0.000138275 2.66188e-23)
(-0.000105581 0.000187047 -5.00663e-24)
(-0.000124601 0.000231551 0)
(-0.000137628 0.000271184 8.56429e-26)
(-0.000143948 0.000305338 1.68034e-23)
(-0.000142801 0.000333391 -1.58106e-23)
(-0.000133388 0.000354719 -7.29826e-24)
(-0.000114864 0.000368704 6.99292e-24)
(-8.63387e-05 0.000374727 -2.57676e-23)
(-4.68867e-05 0.000372189 3.00974e-23)
(4.45472e-06 0.000360516 -2.23732e-23)
(6.86753e-05 0.000339168 5.17454e-24)
(0.000146783 0.000307648 -9.63936e-24)
(0.000239788 0.000265517 8.91171e-24)
(0.000348686 0.000212406 8.43514e-24)
(0.000474414 0.000148042 -7.65434e-24)
(0.000617829 7.22616e-05 6.98433e-24)
(0.000779652 -1.49537e-05 -6.51013e-24)
(0.000960406 -0.000113447 6.01843e-26)
(0.00116033 -0.000222841 0)
(0.0013793 -0.00034249 -1.00121e-23)
(0.00161668 -0.000471424 1.25534e-25)
(0.00187125 -0.000608301 1.21632e-25)
(0.0021411 -0.000751306 7.60522e-24)
(0.00242303 -0.000898268 -6.87872e-24)
(0.0027145 -0.00104605 1.22433e-23)
(0.00300198 -0.00119658 1.08883e-23)
(0.00332835 -0.00132441 0)
(-1.87439e-05 2.83497e-05 1.11608e-23)
(-5.13811e-05 8.02884e-05 -2.90143e-24)
(-7.9514e-05 0.000129222 0)
(-0.000102524 0.000174602 -5.09218e-24)
(-0.000119761 0.000215847 0)
(-0.00013051 0.000252366 -4.52082e-24)
(-0.000134002 0.000283562 0)
(-0.000129423 0.000308824 -1.19929e-23)
(-0.00011592 0.00032754 -7.40157e-24)
(-9.25923e-05 0.000339097 2.11817e-23)
(-5.85024e-05 0.000342884 6.5039e-24)
(-1.2677e-05 0.000338313 -1.82627e-23)
(4.58862e-05 0.000324817 4.23671e-26)
(0.000118209 0.000301864 2.63836e-23)
(0.000205321 0.000268967 -3.5054e-26)
(0.000308242 0.000225698 -1.82779e-23)
(0.00042795 0.000171708 -8.35451e-24)
(0.000565351 0.000106743 0)
(0.000721241 3.06689e-05 7.12952e-24)
(0.000896248 -5.65003e-05 6.60456e-24)
(0.00109076 -0.000154563 -1.2239e-23)
(0.00130482 -0.000263088 0)
(0.00153805 -0.000381366 -1.03073e-23)
(0.00178952 -0.000508359 -9.26949e-24)
(0.00205763 -0.000642646 -8.41884e-24)
(0.00233993 -0.000782298 -7.47347e-24)
(0.00263273 -0.00092512 6.9797e-24)
(0.00293307 -0.00106787 -1.22367e-23)
(0.00322655 -0.00121309 1.657e-25)
(0.00355743 -0.00133329 9.38274e-24)
(-1.8385e-05 2.63258e-05 0)
(-5.00599e-05 7.44035e-05 -5.71368e-26)
(-7.68848e-05 0.000119572 -1.66808e-23)
(-9.81948e-05 0.0001613 5.20934e-24)
(-0.000113291 0.000199018 0)
(-0.000121406 0.000232153 2.32594e-23)
(-0.000121719 0.000260124 -3.93395e-23)
(-0.000113363 0.000282338 8.21796e-24)
(-9.54296e-05 0.000298198 -1.52888e-23)
(-6.69666e-05 0.000307102 7.2469e-24)
(-2.6988e-05 0.00030846 0)
(2.55242e-05 0.000301695 0)
(9.16102e-05 0.000286256 -5.82931e-24)
(0.000172322 0.000261626 5.41454e-24)
(0.000268706 0.000227335 0)
(0.000381782 0.000182976 9.16439e-24)
(0.000512506 0.000128225 0)
(0.000661746 6.28534e-05 1.58358e-23)
(0.000830224 -1.324e-05 -7.30144e-24)
(0.00101846 -9.99996e-05 0)
(0.00122666 -0.000197175 -6.3068e-24)
(0.00145469 -0.00030428 0)
(0.00170187 -0.000420541 2.07481e-23)
(0.00196694 -0.000544851 9.52968e-24)
(0.00224788 -0.000675714 8.65916e-24)
(0.00254164 -0.000811105 0)
(0.0028441 -0.000948835 1.36268e-25)
(0.00315177 -0.0010856 6.33837e-24)
(0.00344965 -0.00122455 -1.10424e-23)
(0.0037827 -0.00133616 -9.37772e-24)
(-1.78394e-05 2.42126e-05 1.16092e-23)
(-4.81814e-05 6.82397e-05 -3.07325e-24)
(-7.33232e-05 0.00010944 -1.07355e-25)
(-9.25542e-05 0.000147299 1.59575e-23)
(-0.000105128 0.000181269 -1.51716e-23)
(-0.000110229 0.000210795 -4.69337e-24)
(-0.000106983 0.000235318 -8.02449e-26)
(-9.44722e-05 0.000254268 -7.40563e-26)
(-7.17338e-05 0.000267068 0)
(-3.77684e-05 0.000273137 -1.45296e-23)
(8.45782e-06 0.000271907 2.03099e-23)
(6.80043e-05 0.000262821 -1.26707e-23)
(0.000141946 0.000245351 1.17556e-23)
(0.000231361 0.000219002 -5.41519e-24)
(0.000337306 0.000183328 0)
(0.000460789 0.000137953 9.44713e-24)
(0.000602745 8.25784e-05 -8.24258e-26)
(0.000763987 1.70107e-05 -7.90911e-24)
(0.000945146 -5.88115e-05 7.37378e-24)
(0.00114661 -0.000144787 -6.8234e-24)
(0.00136841 -0.000240613 2.50378e-23)
(0.00161015 -0.000345745 -2.30085e-23)
(0.00187087 -0.00045935 1.0575e-23)
(0.00214893 -0.000580252 -3.83423e-23)
(0.00244179 -0.000706868 -1.72916e-23)
(0.00274589 -0.000837132 1.50269e-25)
(0.0030566 -0.000968874 1.43744e-23)
(0.00336988 -0.00109879 1.89573e-23)
(0.00367046 -0.00123061 -5.7174e-24)
(0.00400298 -0.00133285 0)
(-1.71054e-05 2.203e-05 -1.18342e-23)
(-4.57362e-05 6.1857e-05 -1.15201e-25)
(-6.8807e-05 9.89263e-05 5.70946e-24)
(-8.55632e-05 0.000132745 5.37206e-24)
(-9.52129e-05 0.000162788 -2.56738e-23)
(-9.68925e-05 0.000188524 3.85917e-23)
(-8.96798e-05 0.000209421 -2.71665e-23)
(-7.26043e-05 0.000224937 4.24184e-23)
(-4.46558e-05 0.000234517 -1.59041e-23)
(-4.78701e-06 0.000237611 -2.22504e-23)
(4.80789e-05 0.000233675 1.38751e-23)
(0.000115039 0.000222182 6.08292e-26)
(0.0001972 0.000202631 6.05152e-24)
(0.000295657 0.000174556 0)
(0.000411466 0.000137547 1.02572e-23)
(0.000545625 9.12555e-05 -9.39234e-24)
(0.00069903 3.54214e-05 1.75978e-23)
(0.000872424 -3.01082e-05 -8.06609e-24)
(0.00106633 -0.00010535 -7.47616e-24)
(0.00128098 -0.000190153 -6.91367e-24)
(0.0015162 -0.000284161 -1.8885e-23)
(0.00177133 -0.00038677 2.32354e-23)
(0.00204507 -0.000497086 1.05928e-23)
(0.00233537 -0.000613869 -2.37279e-25)
(0.00263911 -0.000735454 -1.16185e-25)
(0.00295227 -0.000859772 0)
(0.00326968 -0.000984682 1.61664e-25)
(0.00358665 -0.00110698 -2.55718e-23)
(0.00388817 -0.00123096 5.48567e-24)
(0.00421691 -0.00132328 -9.88854e-24)
(-1.61803e-05 1.97947e-05 1.90753e-26)
(-4.2713e-05 5.53072e-05 1.85785e-23)
(-6.33119e-05 8.8121e-05 0)