/*--------------------------------*- C++ -*----------------------------------*\
| =========                 |                                                 |
| \\      /  F ield         | foam-extend: Open Source CFD                    |
|  \\    /   O peration     | Version:     4.0                                |
|   \\  /    A nd           | Web:         http://www.foam-extend.org         |
|    \\/     M anipulation  |                                                 |
\*---------------------------------------------------------------------------*/
FoamFile
{
    version     2.0;
    format      ascii;
    class       volScalarField;
    location    "20";
    object      p;
}
// * * * * * * * * * * * * * * * * * * * * * * * * * * * * * * * * * * * * * //

dimensions      [0 2 -2 0 0 0 0];

internalField   nonuniform List<scalar> 
36000
(
-5.30976e-06
-5.36286e-06
-5.41653e-06
-5.46245e-06
-5.50089e-06
-5.53233e-06
-5.55631e-06
-5.57205e-06
-5.57874e-06
-5.57543e-06
-5.56105e-06
-5.5343e-06
-5.49367e-06
-5.43739e-06
-5.36347e-06
-5.26962e-06
-5.15323e-06
-5.01193e-06
-4.84321e-06
-4.64461e-06
-4.41403e-06
-4.15e-06
-3.85196e-06
-3.52047e-06
-3.15731e-06
-2.76645e-06
-2.35352e-06
-1.92601e-06
-1.4933e-06
-1.06099e-06
-5.33685e-06
-5.38934e-06
-5.4424e-06
-5.48777e-06
-5.52573e-06
-5.55675e-06
-5.58035e-06
-5.59579e-06
-5.60224e-06
-5.59877e-06
-5.5843e-06
-5.55755e-06
-5.51701e-06
-5.46092e-06
-5.38728e-06
-5.29385e-06
-5.17809e-06
-5.03737e-06
-4.8693e-06
-4.67146e-06
-4.44172e-06
-4.17858e-06
-3.88143e-06
-3.55077e-06
-3.18841e-06
-2.79818e-06
-2.38571e-06
-1.95844e-06
-1.52575e-06
-1.09204e-06
-5.39089e-06
-5.44219e-06
-5.49402e-06
-5.5383e-06
-5.57531e-06
-5.60547e-06
-5.62834e-06
-5.64317e-06
-5.64914e-06
-5.64534e-06
-5.63069e-06
-5.60393e-06
-5.56357e-06
-5.50785e-06
-5.4348e-06
-5.34217e-06
-5.22746e-06
-5.08798e-06
-4.9213e-06
-4.72498e-06
-4.4969e-06
-4.2355e-06
-3.9401e-06
-3.61108e-06
-3.25026e-06
-2.86129e-06
-2.4497e-06
-2.02289e-06
-1.59026e-06
-1.15367e-06
-5.47131e-06
-5.52084e-06
-5.57086e-06
-5.61353e-06
-5.64912e-06
-5.67802e-06
-5.6998e-06
-5.71371e-06
-5.71896e-06
-5.71466e-06
-5.69974e-06
-5.67296e-06
-5.63285e-06
-5.57768e-06
-5.50549e-06
-5.41404e-06
-5.30079e-06
-5.16308e-06
-4.99852e-06
-4.80449e-06
-4.57886e-06
-4.32002e-06
-4.02718e-06
-3.70057e-06
-3.34198e-06
-2.95483e-06
-2.54455e-06
-2.11839e-06
-1.6859e-06
-1.24485e-06
-5.57727e-06
-5.62451e-06
-5.67215e-06
-5.71272e-06
-5.74644e-06
-5.77368e-06
-5.79402e-06
-5.80672e-06
-5.81102e-06
-5.80604e-06
-5.79074e-06
-5.76393e-06
-5.72414e-06
-5.66969e-06
-5.5986e-06
-5.50863e-06
-5.39729e-06
-5.26201e-06
-5.10002e-06
-4.90895e-06
-4.68652e-06
-4.431e-06
-4.14149e-06
-3.81801e-06
-3.46228e-06
-3.07749e-06
-2.66885e-06
-2.24351e-06
-1.81121e-06
-1.36414e-06
-5.70772e-06
-5.75216e-06
-5.7969e-06
-5.8349e-06
-5.86633e-06
-5.89154e-06
-5.9101e-06
-5.92131e-06
-5.92442e-06
-5.91858e-06
-5.90282e-06
-5.87593e-06
-5.83651e-06
-5.78287e-06
-5.71307e-06
-5.62486e-06
-5.5158e-06
-5.38327e-06
-5.22455e-06
-5.03707e-06
-4.81851e-06
-4.56702e-06
-4.28148e-06
-3.96186e-06
-3.60955e-06
-3.22753e-06
-2.82085e-06
-2.39642e-06
-1.96437e-06
-1.50973e-06
-5.86137e-06
-5.90255e-06
-5.94393e-06
-5.97892e-06
-6.00768e-06
-6.0305e-06
-6.04696e-06
-6.0564e-06
-6.05809e-06
-6.05123e-06
-6.03489e-06
-6.00788e-06
-5.96881e-06
-5.91607e-06
-5.84771e-06
-5.76152e-06
-5.65507e-06
-5.5257e-06
-5.37069e-06
-5.18735e-06
-4.97325e-06
-4.72638e-06
-4.44544e-06
-4.13022e-06
-3.78181e-06
-3.40295e-06
-2.99844e-06
-2.57493e-06
-2.14322e-06
-1.67948e-06
-6.03676e-06
-6.07428e-06
-6.11186e-06
-6.14346e-06
-6.1692e-06
-6.1893e-06
-6.20337e-06
-6.21077e-06
-6.21083e-06
-6.20278e-06
-6.18572e-06
-6.15849e-06
-6.11977e-06
-6.06796e-06
-6.00116e-06
-5.91719e-06
-5.81362e-06
-5.68776e-06
-5.53683e-06
-5.35808e-06
-5.14892e-06
-4.90717e-06
-4.63136e-06
-4.32098e-06
-3.97686e-06
-3.60143e-06
-3.19926e-06
-2.77663e-06
-2.34526e-06
-1.87097e-06
-6.2323e-06
-6.2658e-06
-6.29922e-06
-6.3271e-06
-6.34949e-06
-6.36658e-06
-6.37798e-06
-6.3831e-06
-6.38131e-06
-6.37189e-06
-6.35395e-06
-6.3264e-06
-6.28798e-06
-6.23713e-06
-6.17196e-06
-6.09035e-06
-5.98983e-06
-5.86774e-06
-5.72121e-06
-5.54739e-06
-5.34355e-06
-5.10735e-06
-4.83703e-06
-4.53183e-06
-4.19228e-06
-3.82048e-06
-3.42071e-06
-2.9989e-06
-2.56781e-06
-2.08155e-06
-6.44627e-06
-6.47548e-06
-6.50443e-06
-6.52829e-06
-6.54706e-06
-6.56087e-06
-6.56936e-06
-6.57197e-06
-6.56812e-06
-6.55714e-06
-6.53816e-06
-6.51018e-06
-6.472e-06
-6.42206e-06
-6.35855e-06
-6.27935e-06
-6.18202e-06
-6.06386e-06
-5.92194e-06
-5.75331e-06
-5.55509e-06
-5.32469e-06
-5.06012e-06
-4.76034e-06
-4.42553e-06
-4.05744e-06
-3.66008e-06
-3.23894e-06
-2.80803e-06
-2.30843e-06
-6.67693e-06
-6.70162e-06
-6.72586e-06
-6.74545e-06
-6.76036e-06
-6.77068e-06
-6.77602e-06
-6.77591e-06
-6.76979e-06
-6.75705e-06
-6.73688e-06
-6.70836e-06
-6.6703e-06
-6.62119e-06
-6.5593e-06
-6.48254e-06
-6.38846e-06
-6.2743e-06
-6.13713e-06
-5.97384e-06
-5.78137e-06
-5.55693e-06
-5.29826e-06
-5.00401e-06
-4.67399e-06
-4.3096e-06
-3.91454e-06
-3.49389e-06
-3.06303e-06
-2.54875e-06
-6.9225e-06
-6.94251e-06
-6.96184e-06
-6.97698e-06
-6.98785e-06
-6.99446e-06
-6.99647e-06
-6.99343e-06
-6.98486e-06
-6.97018e-06
-6.94867e-06
-6.91945e-06
-6.88135e-06
-6.83298e-06
-6.77263e-06
-6.69825e-06
-6.60738e-06
-6.49726e-06
-6.36485e-06
-6.20692e-06
-6.02024e-06
-5.80179e-06
-5.54904e-06
-5.26029e-06
-4.93501e-06
-4.57419e-06
-4.18126e-06
-3.76082e-06
-3.32989e-06
-2.7997e-06
-7.18124e-06
-7.19646e-06
-7.21076e-06
-7.22131e-06
-7.22797e-06
-7.23071e-06
-7.22922e-06
-7.22308e-06
-7.21187e-06
-7.1951e-06
-7.17208e-06
-7.14195e-06
-7.10365e-06
-7.05588e-06
-6.99696e-06
-6.92485e-06
-6.83711e-06
-6.73093e-06
-6.6032e-06
-6.45055e-06
-6.26959e-06
-6.05705e-06
-5.81011e-06
-5.52669e-06
-5.20598e-06
-4.8485e-06
-4.45743e-06
-4.03689e-06
-3.60571e-06
-3.05854e-06
-7.45146e-06
-7.46184e-06
-7.47103e-06
-7.47688e-06
-7.47923e-06
-7.47797e-06
-7.47281e-06
-7.46343e-06
-7.44947e-06
-7.43043e-06
-7.40566e-06
-7.37444e-06
-7.33579e-06
-7.28845e-06
-7.2308e-06
-7.16079e-06
-7.076e-06
-6.97358e-06
-6.85035e-06
-6.70282e-06
-6.52738e-06
-6.32054e-06
-6.07916e-06
-5.80083e-06
-5.48436e-06
-5.12988e-06
-4.74033e-06
-4.3193e-06
-3.88768e-06
-3.32261e-06
-7.73157e-06
-7.7371e-06
-7.74116e-06
-7.7423e-06
-7.74027e-06
-7.73492e-06
-7.72599e-06
-7.71323e-06
-7.69631e-06
-7.67475e-06
-7.64807e-06
-7.6156e-06
-7.57643e-06
-7.52932e-06
-7.4727e-06
-7.40457e-06
-7.32249e-06
-7.2236e-06
-7.10462e-06
-6.96192e-06
-6.79171e-06
-6.59023e-06
-6.35404e-06
-6.08041e-06
-5.76775e-06
-5.41584e-06
-5.02738e-06
-4.60542e-06
-4.17315e-06
-3.58943e-06
-8.02001e-06
-8.02073e-06
-8.0197e-06
-8.0161e-06
-8.00966e-06
-8.00017e-06
-7.9874e-06
-7.97112e-06
-7.95105e-06
-7.92688e-06
-7.89814e-06
-7.86424e-06
-7.82431e-06
-7.77719e-06
-7.72136e-06
-7.65483e-06
-7.57519e-06
-7.47951e-06
-7.36443e-06
-7.22619e-06
-7.0608e-06
-6.86425e-06
-6.63274e-06
-6.3633e-06
-6.05391e-06
-5.70405e-06
-5.31617e-06
-4.8928e-06
-4.45962e-06
-3.85669e-06
-8.31537e-06
-8.31138e-06
-8.3053e-06
-8.29699e-06
-8.28612e-06
-8.27245e-06
-8.25575e-06
-8.23587e-06
-8.21262e-06
-8.18571e-06
-8.15476e-06
-8.11922e-06
-8.07832e-06
-8.03094e-06
-7.97561e-06
-7.91038e-06
-7.83282e-06
-7.73997e-06
-7.62838e-06
-7.49413e-06
-7.33305e-06
-7.14085e-06
-6.91346e-06
-6.64755e-06
-6.34082e-06
-5.99236e-06
-5.6045e-06
-5.1792e-06
-4.74482e-06
-4.12229e-06
-8.61649e-06
-8.6079e-06
-8.59687e-06
-8.58391e-06
-8.56865e-06
-8.55077e-06
-8.53012e-06
-8.5066e-06
-8.48006e-06
-8.45027e-06
-8.41693e-06
-8.37956e-06
-8.33745e-06
-8.28955e-06
-8.23443e-06
-8.17015e-06
-8.09429e-06
-8.00383e-06
-7.89522e-06
-7.76442e-06
-7.60703e-06
-7.41852e-06
-7.19455e-06
-6.93144e-06
-6.62661e-06
-6.27886e-06
-5.89037e-06
-5.46259e-06
-5.02672e-06
-4.38434e-06
-8.92232e-06
-8.90926e-06
-8.89341e-06
-8.87588e-06
-8.85626e-06
-8.83421e-06
-8.80959e-06
-8.78238e-06
-8.75247e-06
-8.71968e-06
-8.6838e-06
-8.64441e-06
-8.60087e-06
-8.55217e-06
-8.49693e-06
-8.43324e-06
-8.35864e-06
-8.27008e-06
-8.1639e-06
-8.03591e-06
-7.88153e-06
-7.69592e-06
-7.47457e-06
-7.21343e-06
-6.90967e-06
-6.56183e-06
-6.17202e-06
-5.74118e-06
-5.30353e-06
-4.64128e-06
-9.23196e-06
-9.21457e-06
-9.19404e-06
-9.17205e-06
-9.14815e-06
-9.12195e-06
-9.09338e-06
-9.06245e-06
-9.02908e-06
-8.9932e-06
-8.95464e-06
-8.91305e-06
-8.86784e-06
-8.81807e-06
-8.76238e-06
-8.69887e-06
-8.62508e-06
-8.53787e-06
-8.4335e-06
-8.30763e-06
-8.15547e-06
-7.97193e-06
-7.75227e-06
-7.49218e-06
-7.18857e-06
-6.83978e-06
-6.44791e-06
-6.01343e-06
-5.57367e-06
-4.89176e-06
-9.54465e-06
-9.5231e-06
-9.49804e-06
-9.4717e-06
-9.44359e-06
-9.41331e-06
-9.38082e-06
-9.34614e-06
-9.30928e-06
-9.27021e-06
-9.22885e-06
-9.18489e-06
-9.13779e-06
-9.08667e-06
-9.03018e-06
-8.96644e-06
-8.89294e-06
-8.80651e-06
-8.70328e-06
-8.57876e-06
-8.42795e-06
-8.24559e-06
-8.02662e-06
-7.76656e-06
-7.46211e-06
-7.11144e-06
-6.71669e-06
-6.27794e-06
-5.83556e-06
-5.1342e-06
-9.8598e-06
-9.83425e-06
-9.80482e-06
-9.77425e-06
-9.74203e-06
-9.70773e-06
-9.67135e-06
-9.63293e-06
-9.59253e-06
-9.55022e-06
-9.50593e-06
-9.45944e-06
-9.41024e-06
-9.35749e-06
-9.29985e-06
-9.23545e-06
-9.16173e-06
-9.07545e-06
-8.97264e-06
-8.84864e-06
-8.69825e-06
-8.51608e-06
-8.29674e-06
-8.03562e-06
-7.72927e-06
-7.37572e-06
-6.97725e-06
-6.53358e-06
-6.08794e-06
-5.36711e-06
-1.01769e-05
-1.01475e-05
-1.01139e-05
-1.00792e-05
-1.0043e-05
-1.00048e-05
-9.96453e-06
-9.92237e-06
-9.87843e-06
-9.83282e-06
-9.78551e-06
-9.73634e-06
-9.68483e-06
-9.63017e-06
-9.57103e-06
-9.50551e-06
-9.43103e-06
-9.34425e-06
-9.2411e-06
-9.11676e-06
-8.9658e-06
-8.78271e-06
-8.5619e-06
-8.29858e-06
-7.98919e-06
-7.63174e-06
-7.22864e-06
-6.77938e-06
-6.32969e-06
-5.59e-06
-1.04957e-05
-1.04626e-05
-1.04249e-05
-1.03863e-05
-1.03461e-05
-1.03041e-05
-1.026e-05
-1.02141e-05
-1.01667e-05
-1.01177e-05
-1.00673e-05
-1.00153e-05
-9.96128e-06
-9.90443e-06
-9.84342e-06
-9.77633e-06
-9.70052e-06
-9.61257e-06
-9.50827e-06
-9.38266e-06
-9.23013e-06
-9.04499e-06
-8.82152e-06
-8.5548e-06
-8.2412e-06
-7.87877e-06
-7.47002e-06
-7.01458e-06
-6.55975e-06
-5.80313e-06
-1.08158e-05
-1.07792e-05
-1.07376e-05
-1.06951e-05
-1.06512e-05
-1.06053e-05
-1.05575e-05
-1.0508e-05
-1.0457e-05
-1.04046e-05
-1.03511e-05
-1.02961e-05
-1.02394e-05
-1.01801e-05
-1.01168e-05
-1.00477e-05
-9.96998e-06
-9.88014e-06
-9.77386e-06
-9.64598e-06
-9.49086e-06
-9.30248e-06
-9.07513e-06
-8.80377e-06
-8.48477e-06
-8.11626e-06
-7.70081e-06
-7.2386e-06
-6.77721e-06
-6.00662e-06
-1.11371e-05
-1.10971e-05
-1.10517e-05
-1.10055e-05
-1.09579e-05
-1.09083e-05
-1.08568e-05
-1.08037e-05
-1.07491e-05
-1.06934e-05
-1.06366e-05
-1.05786e-05
-1.0519e-05
-1.04569e-05
-1.03911e-05
-1.03194e-05
-1.02392e-05
-1.01468e-05
-1.00376e-05
-9.90648e-06
-9.74763e-06
-9.55485e-06
-9.32237e-06
-9.04512e-06
-8.7195e-06
-8.34379e-06
-7.92063e-06
-7.45127e-06
-6.9817e-06
-6.20195e-06
-1.14595e-05
-1.14162e-05
-1.13671e-05
-1.13173e-05
-1.12661e-05
-1.12129e-05
-1.11578e-05
-1.11011e-05
-1.10431e-05
-1.09839e-05
-1.09238e-05
-1.08626e-05
-1.07999e-05
-1.07348e-05
-1.0666e-05
-1.05914e-05
-1.0508e-05
-1.04122e-05
-1.02993e-05
-1.01639e-05
-1.00002e-05
-9.80179e-06
-9.56293e-06
-9.27854e-06
-8.94509e-06
-8.56097e-06
-8.12897e-06
-7.65214e-06
-7.17148e-06
-6.38956e-06
-1.17829e-05
-1.17363e-05
-1.16837e-05
-1.16303e-05
-1.15756e-05
-1.15189e-05
-1.14603e-05
-1.14001e-05
-1.13386e-05
-1.1276e-05
-1.12126e-05
-1.1148e-05
-1.10821e-05
-1.10137e-05
-1.09416e-05
-1.08634e-05
-1.07763e-05
-1.06763e-05
-1.05588e-05
-1.04181e-05
-1.02483e-05
-1.00431e-05
-9.79658e-06
-9.50384e-06
-9.1614e-06
-8.76774e-06
-8.32537e-06
-7.83928e-06
-7.33704e-06
-6.55609e-06
-1.21071e-05
-1.20574e-05
-1.20013e-05
-1.19445e-05
-1.18864e-05
-1.18262e-05
-1.17642e-05
-1.17005e-05
-1.16356e-05
-1.15696e-05
-1.15027e-05
-1.14348e-05
-1.13653e-05
-1.12934e-05
-1.12175e-05
-1.11353e-05
-1.10438e-05
-1.09389e-05
-1.08157e-05
-1.06687e-05
-1.04917e-05
-1.02784e-05
-1.00231e-05
-9.72097e-06
-9.36859e-06
-8.96481e-06
-8.51131e-06
-8.01297e-06
-7.46793e-06
-6.6857e-06
-1.24321e-05
-1.23794e-05
-1.23199e-05
-1.22597e-05
-1.21983e-05
-1.21347e-05
-1.20693e-05
-1.20022e-05
-1.19338e-05
-1.18645e-05
-1.17941e-05
-1.17226e-05
-1.16495e-05
-1.15738e-05
-1.14937e-05
-1.1407e-05
-1.13104e-05
-1.11997e-05
-1.107e-05
-1.09155e-05
-1.07301e-05
-1.05077e-05
-1.02424e-05
-9.9299e-06
-9.56705e-06
-9.15349e-06
-8.69057e-06
-8.18305e-06
-7.59617e-06
-6.88879e-06
-1.27579e-05
-1.27021e-05
-1.26392e-05
-1.25758e-05
-1.2511e-05
-1.24442e-05
-1.23754e-05
-1.2305e-05
-1.22333e-05
-1.21604e-05
-1.20866e-05
-1.20114e-05
-1.19345e-05
-1.18545e-05
-1.17699e-05
-1.16781e-05
-1.15757e-05
-1.14584e-05
-1.13212e-05
-1.11582e-05
-1.09633e-05
-1.07305e-05
-1.04542e-05
-1.01303e-05
-9.75649e-06
-9.33341e-06
-8.86339e-06
-8.35724e-06
-7.78776e-06
-7.44883e-06
-1.30841e-05
-1.30254e-05
-1.29592e-05
-1.28925e-05
-1.28245e-05
-1.27545e-05
-1.26824e-05
-1.26087e-05
-1.25336e-05
-1.24573e-05
-1.23799e-05
-1.2301e-05
-1.22199e-05
-1.21355e-05
-1.20459e-05
-1.19484e-05
-1.18395e-05
-1.17147e-05
-1.1569e-05
-1.13964e-05
-1.11908e-05
-1.09464e-05
-1.06579e-05
-1.03216e-05
-9.93576e-06
-9.50189e-06
-9.02299e-06
-8.51289e-06
-7.94837e-06
-7.66997e-06
-1.34106e-05
-1.33489e-05
-1.32794e-05
-1.32096e-05
-1.31385e-05
-1.30653e-05
-1.299e-05
-1.2913e-05
-1.28346e-05
-1.27549e-05
-1.26737e-05
-1.25909e-05
-1.25055e-05
-1.24163e-05
-1.23212e-05
-1.22174e-05
-1.21012e-05
-1.19682e-05
-1.18129e-05
-1.16296e-05
-1.14123e-05
-1.11551e-05
-1.08533e-05
-1.05034e-05
-1.01044e-05
-9.65851e-06
-9.1691e-06
-8.65063e-06
-8.07696e-06
-7.77071e-06
-1.37371e-05
-1.36724e-05
-1.35998e-05
-1.35268e-05
-1.34526e-05
-1.33762e-05
-1.32978e-05
-1.32176e-05
-1.31359e-05
-1.30526e-05
-1.29678e-05
-1.28809e-05
-1.27909e-05
-1.26965e-05
-1.25954e-05
-1.24847e-05
-1.23605e-05
-1.22183e-05
-1.20526e-05
-1.18575e-05
-1.16272e-05
-1.13561e-05
-1.10398e-05
-1.06754e-05
-1.02623e-05
-9.80328e-06
-9.30208e-06
-8.77271e-06
-8.18758e-06
-7.85089e-06
-1.40631e-05
-1.39956e-05
-1.39197e-05
-1.38436e-05
-1.37664e-05
-1.3687e-05
-1.36055e-05
-1.35221e-05
-1.34371e-05
-1.33503e-05
-1.32616e-05
-1.31704e-05
-1.30756e-05
-1.29756e-05
-1.28681e-05
-1.27498e-05
-1.26169e-05
-1.24645e-05
-1.22873e-05
-1.20794e-05
-1.1835e-05
-1.1549e-05
-1.12172e-05
-1.08373e-05
-1.04094e-05
-9.93646e-06
-9.42269e-06
-8.88149e-06
-8.28573e-06
-7.92099e-06
-1.43883e-05
-1.43178e-05
-1.42388e-05
-1.41597e-05
-1.40795e-05
-1.39971e-05
-1.39126e-05
-1.3826e-05
-1.37376e-05
-1.36473e-05
-1.35546e-05
-1.3459e-05
-1.3359e-05
-1.32531e-05
-1.31385e-05
-1.30121e-05
-1.28696e-05
-1.27062e-05
-1.25165e-05
-1.22947e-05
-1.20353e-05
-1.17334e-05
-1.13852e-05
-1.09891e-05
-1.05456e-05
-1.00583e-05
-9.53173e-06
-8.97868e-06
-8.37358e-06
-7.98293e-06
-1.4712e-05
-1.46387e-05
-1.45565e-05
-1.44745e-05
-1.43913e-05
-1.4306e-05
-1.42185e-05
-1.41288e-05
-1.40371e-05
-1.39431e-05
-1.38463e-05
-1.3746e-05
-1.36406e-05
-1.35282e-05
-1.34061e-05
-1.32707e-05
-1.31179e-05
-1.29427e-05
-1.27395e-05
-1.25028e-05
-1.22274e-05
-1.19086e-05
-1.15434e-05
-1.11304e-05
-1.0671e-05
-1.01693e-05
-9.62988e-06
-9.06545e-06
-8.4524e-06
-8.03813e-06
-1.50336e-05
-1.49574e-05
-1.48722e-05
-1.47872e-05
-1.47012e-05
-1.4613e-05
-1.45225e-05
-1.44297e-05
-1.43346e-05
-1.42369e-05
-1.41359e-05
-1.40306e-05
-1.39195e-05
-1.38002e-05
-1.367e-05
-1.35251e-05
-1.33611e-05
-1.31731e-05
-1.29555e-05
-1.27031e-05
-1.24108e-05
-1.20744e-05
-1.16913e-05
-1.12611e-05
-1.07857e-05
-1.02694e-05
-9.71761e-06
-9.14252e-06
-8.52293e-06
-8.08724e-06
-1.53523e-05
-1.52733e-05
-1.51851e-05
-1.50972e-05
-1.50084e-05
-1.49174e-05
-1.4824e-05
-1.47281e-05
-1.46297e-05
-1.45281e-05
-1.44227e-05
-1.43122e-05
-1.41949e-05
-1.40683e-05
-1.39293e-05
-1.37742e-05
-1.35983e-05
-1.33966e-05
-1.31639e-05
-1.28948e-05
-1.25847e-05
-1.223e-05
-1.18287e-05
-1.13811e-05
-1.08894e-05
-1.03589e-05
-9.79518e-06
-9.21027e-06
-8.58562e-06
-8.13024e-06
-1.56673e-05
-1.55855e-05
-1.54943e-05
-1.54036e-05
-1.53121e-05
-1.52184e-05
-1.51221e-05
-1.50231e-05
-1.49212e-05
-1.48158e-05
-1.47058e-05
-1.45898e-05
-1.44659e-05
-1.43315e-05
-1.41832e-05
-1.40171e-05
-1.38285e-05
-1.36124e-05
-1.33636e-05
-1.30771e-05
-1.27486e-05
-1.23751e-05
-1.19552e-05
-1.14899e-05
-1.09822e-05
-1.04377e-05
-9.86257e-06
-9.2686e-06
-8.64051e-06
-8.16734e-06
-1.59775e-05
-1.5893e-05
-1.5799e-05
-1.57056e-05
-1.56115e-05
-1.5515e-05
-1.54159e-05
-1.53139e-05
-1.52085e-05
-1.5099e-05
-1.49842e-05
-1.48625e-05
-1.47316e-05
-1.45888e-05
-1.44307e-05
-1.42529e-05
-1.40508e-05
-1.38195e-05
-1.35538e-05
-1.32491e-05
-1.29017e-05
-1.25089e-05
-1.20703e-05
-1.15873e-05
-1.10637e-05
-1.05056e-05
-9.91956e-06
-9.31684e-06
-8.68642e-06
-8.19977e-06
-1.6282e-05
-1.61949e-05
-1.6098e-05
-1.6002e-05
-1.59054e-05
-1.58064e-05
-1.57044e-05
-1.55993e-05
-1.54904e-05
-1.53767e-05
-1.52569e-05
-1.51291e-05
-1.49909e-05
-1.48393e-05
-1.46706e-05
-1.44804e-05
-1.42641e-05
-1.40168e-05
-1.37336e-05
-1.34102e-05
-1.30433e-05
-1.2631e-05
-1.21735e-05
-1.1673e-05
-1.11339e-05
-1.05626e-05
-9.96606e-06
-9.35502e-06
-8.72211e-06
-8.22716e-06
-1.65797e-05
-1.649e-05
-1.63904e-05
-1.62919e-05
-1.61928e-05
-1.60913e-05
-1.59866e-05
-1.58784e-05
-1.57658e-05
-1.56478e-05
-1.55228e-05
-1.53886e-05
-1.52426e-05
-1.50816e-05
-1.49018e-05
-1.46986e-05
-1.44674e-05
-1.42034e-05
-1.39021e-05
-1.35594e-05
-1.31727e-05
-1.27408e-05
-1.22644e-05
-1.17467e-05
-1.11924e-05
-1.06086e-05
-1.00021e-05
-9.38367e-06
-8.74909e-06
-8.24649e-06
-1.68692e-05
-1.67771e-05
-1.6675e-05
-1.65741e-05
-1.64726e-05
-1.63686e-05
-1.62613e-05
-1.61499e-05
-1.60337e-05
-1.59112e-05
-1.57807e-05
-1.56398e-05
-1.54856e-05
-1.53147e-05
-1.51231e-05
-1.49062e-05
-1.46596e-05
-1.43783e-05
-1.40582e-05
-1.36959e-05
-1.32891e-05
-1.28375e-05
-1.23426e-05
-1.18079e-05
-1.1239e-05
-1.06433e-05
-1.00277e-05
-9.40355e-06
-8.76721e-06
-8.25475e-06
-1.71493e-05
-1.70549e-05
-1.69504e-05
-1.68472e-05
-1.67436e-05
-1.66372e-05
-1.65272e-05
-1.64128e-05
-1.62928e-05
-1.61657e-05
-1.60294e-05
-1.58814e-05
-1.57186e-05
-1.55373e-05
-1.53333e-05
-1.51022e-05
-1.48394e-05
-1.45403e-05
-1.42011e-05
-1.38188e-05
-1.33919e-05
-1.29207e-05
-1.24074e-05
-1.18563e-05
-1.12734e-05
-1.06663e-05
-1.00422e-05
-9.41318e-06
-8.77634e-06
-8.25307e-06
-1.74188e-05
-1.73222e-05
-1.72154e-05
-1.71101e-05
-1.70043e-05
-1.68957e-05
-1.67831e-05
-1.66656e-05
-1.65417e-05
-1.64098e-05
-1.62675e-05
-1.61121e-05
-1.59402e-05
-1.5748e-05
-1.55312e-05
-1.52853e-05
-1.50058e-05
-1.46884e-05
-1.43297e-05
-1.39273e-05
-1.34803e-05
-1.29897e-05
-1.24585e-05
-1.18915e-05
-1.12953e-05
-1.06775e-05
-1.00456e-05
-9.4119e-06
-8.77549e-06
-8.24171e-06
-1.7676e-05
-1.75774e-05
-1.74685e-05
-1.73613e-05
-1.72536e-05
-1.71428e-05
-1.70276e-05
-1.6907e-05
-1.67792e-05
-1.66423e-05
-1.64938e-05
-1.63306e-05
-1.61492e-05
-1.59456e-05
-1.57154e-05
-1.54542e-05
-1.51575e-05
-1.48216e-05
-1.44431e-05
-1.40205e-05
-1.35536e-05
-1.3044e-05
-1.24953e-05
-1.19131e-05
-1.13043e-05
-1.06768e-05
-1.00388e-05
-9.39947e-06
-8.7627e-06
-8.22086e-06
-1.79197e-05
-1.78192e-05
-1.77084e-05
-1.75995e-05
-1.74899e-05
-1.73771e-05
-1.72594e-05
-1.71356e-05
-1.70039e-05
-1.68619e-05
-1.67069e-05
-1.65356e-05
-1.63442e-05
-1.61287e-05
-1.58847e-05
-1.56077e-05
-1.52935e-05
-1.49386e-05
-1.45404e-05
-1.40977e-05
-1.3611e-05
-1.30828e-05
-1.25173e-05
-1.19206e-05
-1.12999e-05
-1.06635e-05
-1.00203e-05
-9.37686e-06
-8.73836e-06
-8.18999e-06
-1.81482e-05
-1.80462e-05
-1.79337e-05
-1.78231e-05
-1.77119e-05
-1.75971e-05
-1.7477e-05
-1.73501e-05
-1.72142e-05
-1.70669e-05
-1.69052e-05
-1.67255e-05
-1.65238e-05
-1.62961e-05
-1.60378e-05
-1.57446e-05
-1.54126e-05
-1.50386e-05
-1.46205e-05
-1.41579e-05
-1.3652e-05
-1.31057e-05
-1.25242e-05
-1.19137e-05
-1.1282e-05
-1.06374e-05
-9.98857e-06
-9.34375e-06
-8.70308e-06
-8.14887e-06
-1.83601e-05
-1.82566e-05
-1.81427e-05
-1.80307e-05
-1.7918e-05
-1.78014e-05
-1.7679e-05
-1.75489e-05
-1.74089e-05
-1.72561e-05
-1.70874e-05
-1.68989e-05
-1.66866e-05
-1.64462e-05
-1.61733e-05
-1.58637e-05
-1.55136e-05
-1.51204e-05
-1.46827e-05
-1.42005e-05
-1.36757e-05
-1.31122e-05
-1.25153e-05
-1.18921e-05
-1.12504e-05
-1.05992e-05
-9.94376e-06
-9.29801e-06
-8.65685e-06
-8.09731e-06
-1.85539e-05
-1.84492e-05
-1.8334e-05
-1.82209e-05
-1.81068e-05
-1.79885e-05
-1.78638e-05
-1.77305e-05
-1.75863e-05
-1.74279e-05
-1.7252e-05
-1.70545e-05
-1.68312e-05
-1.65779e-05
-1.629e-05
-1.59637e-05
-1.55955e-05
-1.51833e-05
-1.47261e-05
-1.42247e-05
-1.36817e-05
-1.31016e-05
-1.24903e-05
-1.18552e-05
-1.12046e-05
-1.05478e-05
-9.88721e-06
-9.23937e-06
-8.59909e-06
-8.03496e-06
-1.87278e-05
-1.86222e-05
-1.8506e-05
-1.83919e-05
-1.82768e-05
-1.81569e-05
-1.80299e-05
-1.78936e-05
-1.7745e-05
-1.75809e-05
-1.73975e-05
-1.71907e-05
-1.69563e-05
-1.66897e-05
-1.63867e-05
-1.60435e-05
-1.56572e-05
-1.52261e-05
-1.47498e-05
-1.42298e-05
-1.36693e-05
-1.30735e-05
-1.24488e-05
-1.18028e-05
-1.11443e-05
-1.04815e-05
-9.81863e-06
-9.16868e-06
-8.52972e-06
-7.96163e-06
-1.88805e-05
-1.87741e-05
-1.86573e-05
-1.85425e-05
-1.84264e-05
-1.83051e-05
-1.8176e-05
-1.80365e-05
-1.78835e-05
-1.77135e-05
-1.75225e-05
-1.73063e-05
-1.70604e-05
-1.67803e-05
-1.64621e-05
-1.6102e-05
-1.56977e-05
-1.5248e-05
-1.4753e-05
-1.42151e-05
-1.3638e-05
-1.30275e-05
-1.23904e-05
-1.17347e-05
-1.10697e-05
-1.04003e-05
-9.73651e-06
-9.08593e-06
-8.44865e-06
-7.87715e-06
-1.90103e-05
-1.89035e-05
-1.87862e-05
-1.86709e-05
-1.85541e-05
-1.84315e-05
-1.83003e-05
-1.81577e-05
-1.80004e-05
-1.78244e-05
-1.76257e-05
-1.73998e-05
-1.71422e-05
-1.68486e-05
-1.6515e-05
-1.61382e-05
-1.57161e-05
-1.52481e-05
-1.47352e-05
-1.41801e-05
-1.35873e-05
-1.29631e-05
-1.23147e-05
-1.16507e-05
-1.09803e-05
-1.03052e-05
-9.64051e-06
-8.99043e-06
-8.35564e-06
-7.78135e-06
-1.91157e-05
-1.90087e-05
-1.88913e-05
-1.87758e-05
-1.86584e-05
-1.85347e-05
-1.84016e-05
-1.82559e-05
-1.80941e-05
-1.79121e-05
-1.77055e-05
-1.74698e-05
-1.72005e-05
-1.68933e-05
-1.65444e-05
-1.6151e-05
-1.57115e-05
-1.52258e-05
-1.46955e-05
-1.41242e-05
-1.35168e-05
-1.288e-05
-1.22215e-05
-1.15504e-05
-1.08742e-05
-1.01964e-05
-9.53117e-06
-8.88221e-06
-8.25056e-06
-7.6741e-06
-1.91952e-05
-1.90884e-05
-1.89711e-05
-1.88556e-05
-1.87379e-05
-1.86133e-05
-1.84783e-05
-1.83296e-05
-1.81633e-05
-1.79751e-05
-1.77606e-05
-1.75151e-05
-1.7234e-05
-1.69132e-05
-1.65491e-05
-1.61394e-05
-1.5683e-05
-1.51802e-05
-1.46335e-05
-1.40468e-05
-1.34259e-05
-1.27777e-05
-1.21106e-05
-1.14336e-05
-1.07513e-05
-1.00732e-05
-9.40859e-06
-8.76122e-06
-8.1333e-06
-7.5553e-06
-1.92474e-05
-1.9141e-05
-1.90242e-05
-1.8909e-05
-1.87912e-05
-1.86657e-05
-1.8529e-05
-1.83773e-05
-1.82066e-05
-1.80123e-05
-1.77898e-05
-1.75344e-05
-1.72416e-05
-1.69073e-05
-1.65283e-05
-1.61027e-05
-1.56298e-05
-1.51108e-05
-1.45485e-05
-1.39476e-05
-1.33144e-05
-1.26562e-05
-1.19816e-05
-1.12996e-05
-1.06129e-05
-9.93512e-06
-9.272e-06
-8.6272e-06
-8.00371e-06
-7.42482e-06
-1.92708e-05
-1.91652e-05
-1.90492e-05
-1.89346e-05
-1.88168e-05
-1.86908e-05
-1.85524e-05
-1.83978e-05
-1.82227e-05
-1.80223e-05
-1.77919e-05
-1.75266e-05
-1.72221e-05
-1.68745e-05
-1.6481e-05
-1.604e-05
-1.55514e-05
-1.5017e-05
-1.44402e-05
-1.38262e-05
-1.31819e-05
-1.2515e-05
-1.18345e-05
-1.11476e-05
-1.04591e-05
-9.78231e-06
-9.12142e-06
-8.48005e-06
-7.86172e-06
-7.28254e-06
-1.92643e-05
-1.91597e-05
-1.90448e-05
-1.8931e-05
-1.88136e-05
-1.86871e-05
-1.85472e-05
-1.83898e-05
-1.82103e-05
-1.80039e-05
-1.77656e-05
-1.74906e-05
-1.71746e-05
-1.6814e-05
-1.64064e-05
-1.59506e-05
-1.54471e-05
-1.48982e-05
-1.4308e-05
-1.36823e-05
-1.30282e-05
-1.2354e-05
-1.16688e-05
-1.09774e-05
-1.02896e-05
-9.61479e-06
-8.95683e-06
-8.31972e-06
-7.70726e-06
-7.1284e-06
-1.92265e-05
-1.91232e-05
-1.90097e-05
-1.8897e-05
-1.87802e-05
-1.86534e-05
-1.85122e-05
-1.83521e-05
-1.81684e-05
-1.7956e-05
-1.77099e-05
-1.74253e-05
-1.70981e-05
-1.6725e-05
-1.63038e-05
-1.58339e-05
-1.53163e-05
-1.4754e-05
-1.41517e-05
-1.35155e-05
-1.28531e-05
-1.21731e-05
-1.1484e-05
-1.07903e-05
-1.0104e-05
-9.43204e-06
-8.77809e-06
-8.1461e-06
-7.54028e-06
-6.96239e-06
-6.34358e-07
-2.2428e-07
1.36062e-07
4.39755e-07
6.83862e-07
8.69241e-07
9.99543e-07
1.0807e-06
1.12005e-06
1.1255e-06
1.1048e-06
1.06498e-06
1.01206e-06
9.50936e-07
8.8542e-07
8.18355e-07
7.51787e-07
6.87126e-07
6.25301e-07
5.66884e-07
5.12197e-07
4.61381e-07
4.1445e-07
3.71332e-07
3.31892e-07
2.95956e-07
2.6333e-07
2.33803e-07
2.07162e-07
1.8319e-07
1.61677e-07
1.42416e-07
1.2521e-07
1.09872e-07
9.62272e-08
8.41115e-08
7.33726e-08
6.38712e-08
5.54792e-08
4.80807e-08
4.1568e-08
3.58451e-08
3.08245e-08
2.64278e-08
2.25854e-08
1.92318e-08
1.63147e-08
1.37745e-08
1.15809e-08
9.66987e-09
8.03856e-09
6.60547e-09
5.40301e-09
4.32904e-09
3.43515e-09
2.66145e-09
1.90289e-09
1.48069e-09
5.1409e-10
8.50711e-10
-6.65934e-07
-2.51305e-07
1.11831e-07
4.1839e-07
6.65296e-07
8.53312e-07
9.86028e-07
1.06934e-06
1.11059e-06
1.11769e-06
1.09839e-06
1.05975e-06
1.00781e-06
9.47494e-07
8.8264e-07
8.16113e-07
7.49982e-07
6.85674e-07
6.24133e-07
5.65946e-07
5.11443e-07
4.60775e-07
4.13964e-07
3.70941e-07
3.31578e-07
2.95705e-07
2.63129e-07
2.33642e-07
2.07034e-07
1.83088e-07
1.61596e-07
1.42351e-07
1.25158e-07
1.09831e-07
9.61953e-08
8.40861e-08
7.33527e-08
6.38556e-08
5.54667e-08
4.80705e-08
4.15608e-08
3.58388e-08
3.08202e-08
2.64238e-08
2.25827e-08
1.92291e-08
1.63124e-08
1.37727e-08
1.15793e-08
9.6696e-09
8.03716e-09
6.60555e-09
5.40209e-09
4.32854e-09
3.43488e-09
2.66083e-09
1.90269e-09
1.48123e-09
5.14652e-10
8.50276e-10
-7.28641e-07
-3.05022e-07
6.35564e-08
3.75824e-07
6.2829e-07
8.21547e-07
9.59063e-07
1.04668e-06
1.09172e-06
1.10209e-06
1.08558e-06
1.04929e-06
9.9931e-07
9.40612e-07
8.7708e-07
8.1163e-07
7.46371e-07
6.82768e-07
6.21796e-07
5.64067e-07
5.09933e-07
4.59562e-07
4.1299e-07
3.70159e-07
3.30951e-07
2.95202e-07
2.62726e-07
2.3332e-07
2.06777e-07
1.82883e-07
1.61433e-07
1.42221e-07
1.25055e-07
1.09749e-07
9.61302e-08
8.40346e-08
7.3312e-08
6.38234e-08
5.54413e-08
4.80501e-08
4.15448e-08
3.5826e-08
3.08104e-08
2.64155e-08
2.25763e-08
1.92235e-08
1.63081e-08
1.37694e-08
1.15762e-08
9.66782e-09
8.03434e-09
6.60474e-09
5.40023e-09
4.3278e-09
3.43401e-09
2.66022e-09
1.90194e-09
1.48069e-09
5.16111e-10
8.49154e-10
-8.21553e-07
-3.847e-07
-8.18689e-09
3.12493e-07
5.73184e-07
7.74193e-07
9.18826e-07
1.01284e-06
1.06351e-06
1.07876e-06
1.06641e-06
1.03363e-06
9.86581e-07
9.303e-07
8.68747e-07
8.04908e-07
7.40955e-07
6.78408e-07
6.18289e-07
5.61248e-07
5.07668e-07
4.57742e-07
4.11528e-07
3.68985e-07
3.30009e-07
2.94447e-07
2.62121e-07
2.32837e-07
2.06391e-07
1.82575e-07
1.61188e-07
1.42026e-07
1.249e-07
1.09626e-07
9.60323e-08
8.39572e-08
7.32508e-08
6.37749e-08
5.54027e-08
4.80194e-08
4.15206e-08
3.58066e-08
3.07952e-08
2.64029e-08
2.25664e-08
1.92151e-08
1.63015e-08
1.3764e-08
1.15716e-08
9.66467e-09
8.03047e-09
6.60294e-09
5.39764e-09
4.32645e-09
3.43256e-09
2.6593e-09
1.90085e-09
1.47981e-09
5.18318e-10
8.47487e-10
-9.43402e-07
-4.89246e-07
-1.02529e-07
2.29035e-07
5.00471e-07
7.11616e-07
8.65582e-07
9.67998e-07
1.02608e-06
1.04778e-06
1.04094e-06
1.01281e-06
9.69642e-07
9.16569e-07
8.57646e-07
7.9595e-07
7.33735e-07
6.72595e-07
6.13612e-07
5.57487e-07
5.04645e-07
4.55313e-07
4.09576e-07
3.67419e-07
3.28752e-07
2.93439e-07
2.61314e-07
2.32192e-07
2.05875e-07
1.82164e-07
1.6086e-07
1.41766e-07
1.24693e-07
1.09461e-07
9.59017e-08
8.38537e-08
7.31688e-08
6.37099e-08
5.53512e-08
4.79784e-08
4.14881e-08
3.57806e-08
3.07748e-08
2.63861e-08
2.25531e-08
1.92039e-08
1.62926e-08
1.37567e-08
1.15654e-08
9.66013e-09
8.02559e-09
6.60014e-09
5.39434e-09
4.32447e-09
3.43052e-09
2.65806e-09
1.89942e-09
1.47857e-09
5.21165e-10
8.4539e-10
-1.09254e-06
-6.17256e-07
-2.18339e-07
1.26275e-07
4.10796e-07
6.34298e-07
7.99676e-07
9.12406e-07
9.79625e-07
1.00927e-06
1.00925e-06
9.86879e-07
9.48523e-07
8.99436e-07
8.43786e-07
7.84759e-07
7.24712e-07
6.65327e-07
6.07762e-07
5.52781e-07
5.00862e-07
4.52273e-07
4.07134e-07
3.65458e-07
3.27178e-07
2.92178e-07
2.60304e-07
2.31384e-07
2.0523e-07
1.8165e-07
1.6045e-07
1.4144e-07
1.24434e-07
1.09256e-07
9.57383e-08
8.37242e-08
7.30663e-08
6.36286e-08
5.52868e-08
4.7927e-08
4.14474e-08
3.5748e-08
3.0749e-08
2.63651e-08
2.25364e-08
1.91898e-08
1.62814e-08
1.37475e-08
1.15576e-08
9.6542e-09
8.01971e-09
6.59631e-09
5.39033e-09
4.32188e-09
3.4279e-09
2.65651e-09
1.89766e-09
1.47694e-09
5.24517e-10
8.43007e-10
-1.26694e-06
-7.67104e-07
-3.54299e-07
5.24572e-09
3.0495e-07
5.42827e-07
7.21538e-07
8.46366e-07
9.24338e-07
9.63368e-07
9.71415e-07
9.55888e-07
9.23261e-07
8.78923e-07
8.27178e-07
7.71341e-07
7.13887e-07
6.56603e-07
6.00738e-07
5.4713e-07
4.96318e-07
4.48621e-07
4.042e-07
3.63102e-07
3.25288e-07
2.90662e-07
2.59091e-07
2.30414e-07
2.04455e-07
1.81032e-07
1.59958e-07
1.41048e-07
1.24122e-07
1.09008e-07
9.55421e-08
8.35687e-08
7.29431e-08
6.3531e-08
5.52093e-08
4.78653e-08
4.13985e-08
3.57088e-08
3.07179e-08
2.63397e-08
2.25162e-08
1.9173e-08
1.6268e-08
1.37363e-08
1.15483e-08
9.64686e-09
8.01285e-09
6.59145e-09
5.38562e-09
4.31866e-09
3.4247e-09
2.65465e-09
1.89557e-09
1.47491e-09
5.28217e-10
8.40505e-10
-1.46429e-06
-9.36959e-07
-5.08902e-07
-1.32851e-07
1.83851e-07
4.37892e-07
6.31669e-07
7.70236e-07
8.60473e-07
9.10251e-07
9.27563e-07
9.19912e-07
8.93897e-07
8.55054e-07
8.07834e-07
7.557e-07
7.0126e-07
6.46423e-07
5.92538e-07
5.4053e-07
4.9101e-07
4.44354e-07
4.00772e-07
3.60349e-07
3.23079e-07
2.88891e-07
2.57673e-07
2.2928e-07
2.0355e-07
1.80311e-07
1.59383e-07
1.40591e-07
1.23759e-07
1.0872e-07
9.53132e-08
8.33873e-08
7.27993e-08
6.3417e-08
5.5119e-08
4.77933e-08
4.13413e-08
3.5663e-08
3.06816e-08
2.63102e-08
2.24926e-08
1.91533e-08
1.62522e-08
1.37232e-08
1.15375e-08
9.63812e-09
8.00502e-09
6.58556e-09
5.38022e-09
4.31482e-09
3.42093e-09
2.65247e-09
1.89316e-09
1.47246e-09
5.32093e-10
8.38062e-10
-1.68202e-06
-1.12482e-06
-6.80479e-07
-2.86684e-07
4.85308e-08
3.20274e-07
5.30641e-07
6.84426e-07
7.88315e-07
8.5011e-07
8.77819e-07
8.79033e-07
8.60483e-07
8.27857e-07
7.85769e-07
7.37842e-07
6.86833e-07
6.34783e-07