/*--------------------------------*- C++ -*----------------------------------*\
| =========                 |                                                 |
| \\      /  F ield         | foam-extend: Open Source CFD                    |
|  \\    /   O peration     | Version:     4.0                                |
|   \\  /    A nd           | Web:         http://www.foam-extend.org         |
|    \\/     M anipulation  |                                                 |
\*---------------------------------------------------------------------------*/
FoamFile
{
    version     2.0;
    format      ascii;
    class       surfaceScalarField;
    location    "20";
    object      phi;
}
// * * * * * * * * * * * * * * * * * * * * * * * * * * * * * * * * * * * * * //

dimensions      [0 3 -1 0 0 0 0];

internalField   nonuniform List<scalar> 
71520
(
-2.70166e-10
2.69087e-10
1.07889e-12
-1.06599e-09
7.92743e-10
3.08318e-12
-2.39895e-09
1.32794e-09
5.01341e-12
-4.27261e-09
1.86686e-09
6.80976e-12
-6.681e-09
2.39998e-09
8.40186e-12
-9.60669e-09
2.91598e-09
9.70815e-12
-1.30188e-08
3.40152e-09
1.06351e-11
-1.6871e-08
3.84108e-09
1.10767e-11
-2.10987e-08
4.21675e-09
1.09139e-11
-2.56167e-08
4.50799e-09
1.00144e-11
-3.03164e-08
4.6915e-09
8.23277e-12
-3.50628e-08
4.74095e-09
5.41127e-12
-3.9691e-08
4.62682e-09
1.3807e-12
-4.40032e-08
4.31627e-09
-4.03735e-12
-4.77652e-08
3.77307e-09
-1.10272e-11
-5.07031e-08
2.95766e-09
-1.97733e-11
-5.25002e-08
1.82747e-09
-3.04453e-11
-5.27982e-08
3.4122e-10
-4.32189e-11
-5.11864e-08
-1.55355e-09
-5.82303e-11
-4.72066e-08
-3.90422e-09
-7.55911e-11
-4.03546e-08
-6.75668e-09
-9.5342e-11
-3.00833e-08
-1.01538e-08
-1.17451e-10
-1.58094e-08
-1.41321e-08
-1.41793e-10
3.0767e-09
-1.8718e-08
-1.68128e-10
2.71943e-08
-2.39216e-08
-1.96033e-10
5.71547e-08
-2.97354e-08
-2.24967e-10
9.35377e-08
-3.61288e-08
-2.542e-10
1.36863e-07
-4.30429e-08
-2.82813e-10
1.87556e-07
-5.03824e-08
-3.09704e-10
-5.80483e-08
2.45938e-07
-3.33681e-10
-2.67141e-10
5.36228e-10
-1.05401e-09
1.57961e-09
-2.37184e-09
2.64577e-09
-4.22402e-09
3.71904e-09
-6.60436e-09
4.78032e-09
-9.49528e-09
5.8069e-09
-1.28658e-08
6.77204e-09
-1.66693e-08
7.64462e-09
-2.08413e-08
8.38869e-09
-2.52964e-08
8.96311e-09
-2.9926e-08
9.32114e-09
-3.4595e-08
9.40996e-09
-3.91386e-08
9.17043e-09
-4.33591e-08
8.53671e-09
-4.70223e-08
7.43626e-09
-4.98545e-08
5.7899e-09
-5.154e-08
3.51297e-09
-5.17171e-08
5.18274e-10
-4.99783e-08
-3.29235e-09
-4.58666e-08
-8.01589e-09
-3.88787e-08
-1.37446e-08
-2.84687e-08
-2.05637e-08
-1.40552e-08
-2.85456e-08
4.9691e-09
-3.77423e-08
2.92205e-08
-4.8173e-08
5.93068e-08
-5.98217e-08
9.58036e-08
-7.26256e-08
1.39226e-07
-8.64652e-08
1.89992e-07
-1.01148e-07
-1.16479e-07
2.48422e-07
-2.61141e-10
7.97369e-10
-1.03022e-09
2.34869e-09
-2.31802e-09
3.93357e-09
-4.12749e-09
5.52851e-09
-6.45209e-09
7.10491e-09
-9.27388e-09
8.62869e-09
-1.25616e-08
1.00598e-08
-1.62684e-08
1.13514e-08
-2.03295e-08
1.24498e-08
-2.46595e-08
1.32931e-08
-2.91495e-08
1.38112e-08
-3.36645e-08
1.39249e-08
-3.80396e-08
1.35455e-08
-4.20771e-08
1.25742e-08
-4.55431e-08
1.09023e-08
-4.81644e-08
8.41117e-09
-4.96257e-08
4.97427e-09
-4.95646e-08
4.57171e-10
-4.75745e-08
-5.28246e-09
-4.32006e-08
-1.23898e-08
-3.59421e-08
-2.10031e-08
-2.5256e-08
-3.12498e-08
-1.05646e-08
-4.32371e-08
8.73462e-09
-5.70415e-08
3.32517e-08
-7.26901e-08
6.35879e-08
-9.01578e-08
1.0031e-07
-1.09348e-07
1.43924e-07
-1.30079e-07
1.94836e-07
-1.5206e-07
-1.75005e-07
2.53362e-07
-2.52282e-10
1.04965e-09
-9.95077e-10
3.09148e-09
-2.23846e-09
5.17695e-09
-3.98473e-09
7.27478e-09
-6.22677e-09
9.34695e-09
-8.94614e-09
1.13481e-08
-1.21111e-08
1.32247e-08
-1.56745e-08
1.49148e-08
-1.95711e-08
1.63464e-08
-2.37154e-08
1.74373e-08
-2.79982e-08
1.80941e-08
-3.22844e-08
1.82111e-08
-3.64091e-08
1.76702e-08
-4.01746e-08
1.63398e-08
-4.33475e-08
1.40751e-08
-4.56549e-08
1.07186e-08
-4.67818e-08
6.10111e-09
-4.63668e-08
4.22317e-11
-4.40042e-08
-7.64506e-09
-3.92416e-08
-1.71524e-08
-3.15815e-08
-2.86631e-08
-2.04855e-08
-4.23458e-08
-5.38106e-09
-5.83415e-08
1.43255e-08
-7.6748e-08
3.92364e-08
-9.76011e-08
6.99426e-08
-1.20864e-07
1.06998e-07
-1.46404e-07
1.50894e-07
-1.73975e-07
2.02021e-07
-2.03187e-07
-2.33667e-07
2.60683e-07
-2.40721e-10
1.29037e-09
-9.49191e-10
3.79995e-09
-2.13452e-09
6.36228e-09
-3.79815e-09
8.93841e-09
-5.93214e-09
1.14809e-08
-8.51738e-09
1.39333e-08
-1.15215e-08
1.62289e-08
-1.48968e-08
1.82901e-08
-1.85777e-08
2.00272e-08
-2.2478e-08
2.13377e-08
-2.64887e-08
2.21047e-08
-3.04741e-08
2.21966e-08
-3.42694e-08
2.14655e-08
-3.76772e-08
1.97476e-08
-4.04643e-08
1.68622e-08
-4.23582e-08
1.26126e-08
-4.30443e-08
6.78714e-09
-4.21634e-08
-8.38593e-10
-3.93107e-08
-1.04977e-08
-3.40372e-08
-2.2426e-08
-2.58495e-08
-3.68508e-08
-1.42149e-08
-5.39804e-08
1.43125e-09
-7.39877e-08
2.16728e-08
-9.69895e-08
4.71006e-08
-1.23029e-07
7.82913e-08
-1.52055e-07
1.15782e-07
-1.83895e-07
1.60045e-07
-2.18238e-07
2.11448e-07
-2.5459e-07
-2.92498e-07
2.7028e-07
-2.26667e-10
1.51704e-09
-8.93364e-10
4.46665e-09
-2.00799e-09
7.47691e-09
-3.57087e-09
1.05013e-08
-5.57305e-09
1.34831e-08
-7.99449e-09
1.63547e-08
-1.0802e-08
1.90364e-08
-1.39473e-08
2.14353e-08
-1.73639e-08
2.34439e-08
-2.09655e-08
2.49393e-08
-2.46423e-08
2.57815e-08
-2.82586e-08
2.58129e-08
-3.16497e-08
2.48565e-08
-3.46181e-08
2.2716e-08
-3.69309e-08
1.9175e-08
-3.83161e-08
1.39978e-08
-3.84601e-08
6.93111e-09
-3.70055e-08
-2.29323e-09
-3.35503e-08
-1.39529e-08
-2.7649e-08
-2.83273e-08
-1.88133e-08
-4.56865e-08
-6.51773e-09
-6.6276e-08
9.79231e-09
-9.02978e-08
3.06895e-08
-1.17887e-07
5.675e-08
-1.49089e-07
8.85324e-08
-1.83837e-07
1.26553e-07
-2.21915e-07
1.71259e-07
-2.62945e-07
2.22991e-07
-3.06322e-07
-3.51526e-07
2.82018e-07
-2.10367e-10
1.72741e-09
-8.28554e-10
5.08484e-09
-1.86099e-09
8.50935e-09
-3.30661e-09
1.19469e-08
-5.15522e-09
1.53317e-08
-7.38564e-09
1.85852e-08
-9.96369e-09
2.16145e-08
-1.284e-08
2.43116e-08
-1.59476e-08
2.65515e-08
-1.91992e-08
2.81909e-08
-2.24848e-08
2.90671e-08
-2.56683e-08
2.89964e-08
-2.85848e-08
2.7773e-08
-3.1037e-08
2.51682e-08
-3.2792e-08
2.09301e-08
-3.35787e-08
1.47845e-08
-3.30847e-08
6.43709e-09
-3.09549e-08
-4.42301e-09
-2.67908e-08
-1.8117e-08
-2.0151e-08
-3.49671e-08
-1.05541e-08
-5.52834e-08
2.51776e-09
-7.93479e-08
1.96067e-08
-1.07387e-07
4.12721e-08
-1.39552e-07
6.80725e-08
-1.7589e-07
1.00545e-07
-2.16309e-07
1.3918e-07
-2.6055e-07
1.84396e-07
-3.08161e-07
2.36497e-07
-3.58423e-07
-4.10766e-07
2.95738e-07
-1.921e-10
1.91951e-09
-7.55842e-10
5.64858e-09
-1.69591e-09
9.44941e-09
-3.0096e-09
1.32606e-08
-4.68519e-09
1.70073e-08
-6.70012e-09
2.06001e-08
-9.01893e-09
2.39333e-08
-1.15911e-08
2.68838e-08
-1.43488e-08
2.93091e-08
-1.72038e-08
3.10459e-08
-2.00454e-08
3.19088e-08
-2.27374e-08
3.16884e-08
-2.51144e-08
3.015e-08
-2.6979e-08
2.70328e-08
-2.80987e-08
2.20498e-08
-2.82032e-08
1.48889e-08
-2.69818e-08
5.21569e-09
-2.40822e-08
-7.32262e-09
-1.91097e-08
-2.30895e-08
-1.16282e-08
-4.24486e-08
-1.16292e-09
-6.57486e-08
1.27905e-08
-9.33013e-08
3.07645e-08
-1.25361e-07
5.33017e-08
-1.62089e-07
8.09399e-08
-2.03528e-07
1.14191e-07
-2.4956e-07
1.53515e-07
-2.99874e-07
1.99295e-07
-3.53941e-07
2.51796e-07
-4.10924e-07
-4.70227e-07
3.11257e-07
-1.72169e-10
2.09167e-09
-6.76402e-10
6.15281e-09
-1.51536e-09
1.02884e-08
-2.68442e-09
1.44297e-08
-4.17007e-09
1.8493e-08
-5.94806e-09
2.23781e-08
-7.98145e-09
2.59667e-08
-1.02184e-08
2.91207e-08
-1.25896e-08
3.16803e-08
-1.50061e-08
3.34624e-08
-1.73565e-08
3.42592e-08
-1.95037e-08
3.38356e-08
-2.1282e-08
3.19283e-08
-2.24938e-08
2.82446e-08
-2.29071e-08
2.24631e-08
-2.22526e-08
1.42344e-08
-2.02216e-08
3.18465e-09
-1.6465e-08
-1.10792e-08
-1.05927e-08
-2.89618e-08
-2.17481e-09
-5.08664e-08
9.25347e-09
-7.71769e-08
2.41881e-08
-1.08236e-07
4.31445e-08
-1.44317e-07
6.66471e-08
-1.85592e-07
9.52101e-08
-2.32091e-07
1.29317e-07
-2.83667e-07
1.6939e-07
-3.39947e-07
2.15774e-07
-4.00326e-07
2.68699e-07
-4.63849e-07
-5.29903e-07
3.28375e-07
-1.50892e-10
2.24257e-09
-5.91466e-10
6.59339e-09
-1.32208e-09
1.1019e-08
-2.3359e-09
1.54435e-08
-3.61733e-09
1.97744e-08
-5.14017e-09
2.39009e-08
-6.86567e-09
2.76922e-08
-8.74031e-09
3.09953e-08
-1.06934e-08
3.36334e-08
-1.26348e-08
3.54038e-08
-1.44521e-08
3.60764e-08
-1.60073e-08
3.53908e-08
-1.7134e-08
3.3055e-08
-1.76344e-08
2.87451e-08
-1.72772e-08
2.21059e-08
-1.57946e-08
1.27518e-08
-1.28792e-08
2.6931e-10
-8.18686e-09
-1.57715e-08
-1.33169e-09
-3.5817e-08
8.10819e-09
-6.03063e-08
2.05882e-08
-8.9657e-08
3.65911e-08
-1.24239e-07
5.66163e-08
-1.64342e-07
8.11668e-08
-2.10142e-07
1.1073e-07
-2.61655e-07
1.45755e-07
-3.18692e-07
1.86626e-07
-3.80818e-07
2.33646e-07
-4.47346e-07
2.87003e-07
-5.17206e-07
-5.89775e-07
3.46875e-07
-1.28591e-10
2.37116e-09
-5.0229e-10
6.96709e-09
-1.11886e-09
1.16355e-08
-1.96897e-09
1.62936e-08
-3.03463e-09
2.08401e-08
-4.28739e-09
2.51537e-08
-5.68639e-09
2.90912e-08
-7.17619e-09
3.24851e-08
-8.68434e-09
3.51416e-08
-1.01194e-08
3.68389e-08
-1.13675e-08
3.73245e-08
-1.22894e-08
3.63127e-08
-1.27181e-08
3.34836e-08
-1.24557e-08
2.84828e-08
-1.12714e-08
2.09216e-08
-8.89852e-09
1.03789e-08
-5.03401e-09
-3.5952e-09
6.64984e-10
-2.14705e-08
8.57655e-09
-4.37286e-08
1.91146e-08
-7.08444e-08
3.2724e-08
-1.03266e-07
4.9873e-08
-1.41388e-07
7.10423e-08
-1.85512e-07
9.67112e-08
-2.35811e-07
1.27337e-07
-2.92281e-07
1.6333e-07
-3.54684e-07
2.05033e-07
-4.22522e-07
2.52707e-07
-4.9502e-07
3.0649e-07
-5.70989e-07
-6.49812e-07
3.66527e-07
-1.05586e-10
2.47674e-09
-4.10114e-10
7.27162e-09
-9.08475e-10
1.21339e-08
-1.58854e-09
1.69737e-08
-2.42959e-09
2.16811e-08
-3.40064e-09
2.61247e-08
-4.4584e-09
3.0149e-08
-5.54521e-09
3.35719e-08
-6.58666e-09
3.6183e-08
-7.48952e-09
3.77418e-08
-8.13816e-09
3.79732e-08
-8.39195e-09
3.65665e-08
-8.08302e-09
3.31747e-08
-7.01367e-09
2.74134e-08
-4.9535e-09
1.88614e-08
-1.63753e-09
7.0629e-09
3.23489e-09
-8.46762e-09
1.0001e-08
-2.82366e-08
1.90329e-08
-5.27605e-08
3.07356e-08
-8.25471e-08
4.55418e-08
-1.18072e-07
6.39032e-08
-1.59749e-07
8.628e-08
-2.07889e-07
1.13125e-07
-2.62656e-07
1.44861e-07
-3.24016e-07
1.81857e-07
-3.91681e-07
2.24416e-07
-4.6508e-07
2.72745e-07
-5.43349e-07
3.26935e-07
-6.25178e-07
-7.09971e-07
3.87094e-07
-8.21746e-11
2.55892e-09
-3.16115e-10
7.50556e-09
-6.93564e-10
1.25114e-08
-1.1993e-09
1.74794e-08
-1.80959e-09
2.22914e-08
-2.49053e-09
2.68057e-08
-3.1961e-09
3.08545e-08
-3.86609e-09
3.42419e-08
-4.424e-09
3.67409e-08
-4.77418e-09
3.80919e-08
-4.79873e-09
3.79977e-08
-4.35576e-09
3.61235e-08
-3.27674e-09
3.20957e-08
-1.36362e-09
2.55003e-08
1.61334e-09
1.58844e-08
5.9174e-09
2.75884e-09
1.18459e-08
-1.43962e-08
1.97311e-08
-3.61218e-08
2.9938e-08
-6.29674e-08
4.28617e-08
-9.54708e-08
5.89209e-08
-1.34132e-07
7.85496e-08
-1.79378e-07
1.02185e-07
-2.31524e-07
1.3025e-07
-2.90722e-07
1.63129e-07
-3.56895e-07
2.01153e-07
-4.29704e-07
2.44572e-07
-5.08499e-07
2.93545e-07
-5.92323e-07
3.48107e-07
-6.7974e-07
-7.70194e-07
4.08329e-07
-5.86235e-11
2.61754e-09
-2.21343e-10
7.66827e-09
-4.76516e-10
1.27665e-08
-8.05562e-10
1.78084e-08
-1.18145e-09
2.26673e-08
-1.56701e-09
2.71912e-08
-1.91309e-09
3.12006e-08
-2.15678e-09
3.44856e-08
-2.21897e-09
3.68031e-08
-2.00071e-09
3.78737e-08
-1.38237e-09
3.73794e-08
-2.20664e-10
3.49618e-08
1.65413e-09
3.02209e-08
4.44037e-09
2.2714e-08
8.36714e-09
1.19577e-08
1.36957e-08
-2.56976e-09
2.07202e-08
-2.14207e-08
2.97673e-08
-4.51688e-08
4.1194e-08
-7.43942e-08
5.53842e-08
-1.09661e-07
7.27416e-08
-1.51489e-07
9.36804e-08
-2.00317e-07
1.18613e-07
-2.56456e-07
1.47928e-07
-3.20037e-07
1.81971e-07
-3.90938e-07
2.21027e-07
-4.68761e-07
2.65298e-07
-5.5277e-07
3.14888e-07
-6.41912e-07
3.69772e-07
-7.34624e-07
-8.30407e-07
4.29986e-07
-3.51326e-11
2.65267e-09
-1.26661e-10
7.7598e-09
-2.5934e-10
1.28992e-08
-4.10982e-10
1.79601e-08
-5.51004e-10
2.28073e-08
-6.38791e-10
2.7279e-08
-6.21864e-10
3.11837e-08
-4.3369e-10
3.42975e-08
8.26865e-12
3.63611e-08
8.05278e-10
3.70767e-08
2.0793e-09
3.61053e-08
3.97559e-09
3.30656e-08
6.66505e-09
2.75314e-08
1.03465e-08
1.90326e-08
1.52485e-08
7.05567e-09
2.16303e-08
-8.95149e-09
2.9782e-08
-2.95724e-08
4.00244e-08
-5.54112e-08
5.27058e-08
-8.70756e-08
6.81977e-08
-1.25153e-07
8.6887e-08
-1.70178e-07
1.09166e-07
-2.22596e-07
1.3542e-07
-2.8271e-07
1.66001e-07
-3.50617e-07
2.01213e-07
-4.2615e-07
2.41295e-07
-5.08842e-07
2.86392e-07
-5.97867e-07
3.36553e-07
-6.92073e-07
3.91696e-07
-7.89767e-07
-8.90525e-07
4.51815e-07
-1.20127e-11
2.66469e-09
-3.32115e-11
7.781e-09
-4.45089e-11
1.29105e-08
-1.98568e-11
1.79354e-08
7.51769e-11
2.27123e-08
2.85034e-10
2.70691e-08
6.66039e-10
3.08027e-08
1.28839e-09
3.36751e-08
2.23817e-09
3.54114e-08
3.61946e-09
3.56954e-08
5.5569e-09
3.41679e-08
8.19789e-09
3.04246e-08
1.17148e-08
2.40145e-08
1.6307e-08
1.44403e-08
2.22025e-08
1.16022e-09
2.9658e-08
-1.6407e-08
3.89598e-08
-3.88742e-08
5.04219e-08
-6.68734e-08
6.4383e-08
-1.01037e-07
8.1201e-08
-1.41971e-07
1.01245e-07
-1.90222e-07
1.24883e-07
-2.46235e-07
1.5247e-07
-3.10297e-07
1.84318e-07
-3.82465e-07
2.20689e-07
-4.62522e-07
2.61771e-07
-5.49923e-07
3.07654e-07
-6.4375e-07
3.58326e-07
-7.42746e-07
4.1365e-07
-8.45091e-07
-9.50448e-07
4.73573e-07
1.04736e-11
2.65421e-09
5.80614e-11
7.73341e-09
1.6594e-10
1.28026e-08
3.64328e-10
1.7737e-08
6.91865e-10
2.23848e-08
1.1972e-09
2.65638e-08
1.9407e-09
3.00592e-08
2.99639e-09
3.26194e-08
4.45383e-09
3.39539e-08
6.42069e-09
3.37285e-08
9.02452e-09
3.15641e-08
1.24151e-08
2.7034e-08
1.67665e-08
1.96631e-08
2.22786e-08
8.92819e-09
2.91786e-08
-5.73978e-09
3.7721e-08
-2.49494e-08
4.81875e-08
-4.93407e-08
6.08848e-08
-7.95707e-08
7.61411e-08
-1.16293e-07
9.42991e-08
-1.60129e-07
1.15708e-07
-2.11631e-07
1.40711e-07
-2.71238e-07
1.69628e-07
-3.39213e-07
2.02731e-07
-4.15568e-07
2.40236e-07
-5.00027e-07
2.82276e-07
-5.91964e-07
3.28887e-07
-6.90361e-07
3.79996e-07
-7.93855e-07
4.35406e-07
-9.00501e-07
-1.01006e-06
4.95022e-07
3.22991e-11
2.62191e-09
1.46881e-10
7.61883e-09
3.71212e-10
1.25783e-08
7.39876e-10
1.73684e-08
1.29593e-09
2.18287e-08
2.09241e-09
2.57673e-08
3.19404e-09
2.89575e-08
4.67893e-09
3.11345e-08
6.64075e-09
3.19921e-08
9.19073e-09
3.11785e-08
1.24597e-08
2.82951e-08
1.66e-08
2.28937e-08
2.17875e-08
1.44756e-08
2.82228e-08
2.49285e-09
3.61321e-08
-1.36491e-08
4.57674e-08
-3.45846e-08
5.74053e-08
-6.09786e-08
7.13448e-08
-9.35102e-08
8.79022e-08
-1.3285e-07
1.07404e-07
-1.79631e-07
1.30178e-07
-2.34405e-07
1.56539e-07
-2.97599e-07
1.86769e-07
-3.69443e-07
2.211e-07
-4.49899e-07
2.59697e-07
-5.38624e-07
3.0264e-07
-6.34906e-07
3.49903e-07
-7.37624e-07
4.01357e-07
-8.45309e-07
4.56748e-07
-9.55892e-07
-1.06925e-06
5.15935e-07
5.33493e-11
2.56856e-09
2.328e-10
7.43938e-09
5.70239e-10
1.22409e-08
1.10479e-09
1.68338e-08
1.88412e-09
2.10494e-08
2.9659e-09
2.46856e-08
4.41941e-09
2.7504e-08
6.32715e-09
2.92268e-08
8.78719e-09
2.95321e-08
1.19147e-08
2.80511e-08
1.58438e-08
2.4366e-08
2.07298e-08
1.80077e-08
2.67503e-08
8.45511e-09
3.41067e-08
-4.86353e-09
4.3024e-08
-2.25664e-08
5.37515e-08
-4.53121e-08
6.65604e-08
-7.37875e-08
8.17408e-08
-1.08691e-07
9.95962e-08
-1.50706e-07
1.20435e-07
-2.0047e-07
1.44563e-07
-2.58532e-07
1.72263e-07
-3.253e-07
2.03777e-07
-4.00957e-07
2.39293e-07
-4.85415e-07
2.78926e-07
-5.78257e-07
3.22696e-07
-6.78677e-07
3.70522e-07
-7.85449e-07
4.22214e-07
-8.97001e-07
4.77467e-07
-1.01115e-06
-1.12788e-06
5.36091e-07
7.35448e-11
2.49502e-09
3.15491e-10
7.19743e-09
7.62258e-10
1.17941e-08
1.45765e-09
1.61384e-08
2.45412e-09
2.00529e-08
3.81417e-09
2.33255e-08
5.61181e-09
2.57064e-08
7.93429e-09
2.69043e-08
1.08842e-08
2.65821e-08
1.45809e-08
2.43544e-08
1.91621e-08
1.97847e-08
2.4786e-08
1.23837e-08
3.16324e-08
1.60876e-09
3.99028e-08
-1.3134e-08
4.98216e-08
-3.24852e-08
6.16346e-08
-5.71251e-08
7.5607e-08
-8.77599e-08
9.20192e-08
-1.25103e-07
1.11161e-07
-1.69847e-07
1.33321e-07
-2.2263e-07
1.58779e-07
-2.8399e-07
1.87786e-07
-3.54306e-07
2.20541e-07
-4.33713e-07
2.57187e-07
-5.22061e-07
2.97782e-07
-6.18852e-07
3.42292e-07
-7.23186e-07
3.90572e-07
-8.33729e-07
4.42381e-07
-9.48809e-07
4.97365e-07
-1.06613e-06
-1.18579e-06
5.55277e-07
9.28491e-11
2.40217e-09
3.94786e-10
6.8955e-09
9.46852e-10
1.1242e-08
1.79765e-09
1.52876e-08
3.00453e-09
1.8846e-08
4.63497e-09
2.16951e-08
6.76795e-09
2.35734e-08
9.49574e-09
2.41765e-08
1.29255e-08
2.31523e-08
1.71809e-08
2.0099e-08
2.24036e-08
1.4562e-08
2.87548e-08
6.03254e-09
3.6416e-08
-6.05244e-09
4.55894e-08
-2.23074e-08
5.64981e-08
-4.33939e-08
6.93842e-08
-7.00112e-08
8.45062e-08
-1.02882e-07
1.02134e-07
-1.4273e-07
1.22541e-07
-1.90254e-07
1.45997e-07
-2.46086e-07
1.72753e-07
-3.10746e-07
2.03022e-07
-3.84576e-07
2.36963e-07
-4.67653e-07
2.74667e-07
-5.59764e-07
3.16138e-07
-6.60324e-07
3.61281e-07
-7.6833e-07
4.09895e-07
-8.82343e-07
4.61682e-07
-1.0006e-06
5.16248e-07
-1.1207e-06
-1.24282e-06
5.7328e-07
1.11263e-10
2.29091e-09
4.70663e-10
6.5361e-09
1.12392e-09
1.05888e-08
2.1245e-09
1.42871e-08
3.53479e-09
1.74357e-08
5.42733e-09
1.98025e-08
7.88617e-09
2.11146e-08
1.10088e-08
2.10539e-08
1.49072e-08
1.9254e-08
1.97093e-08
1.52969e-08
2.55609e-08
8.71048e-09
3.26261e-08
-1.03265e-09
4.10881e-08
-1.45145e-08
5.11498e-08
-3.23691e-08
6.30326e-08
-5.52767e-08
7.69745e-08
-8.39531e-08
9.32262e-08
-1.19134e-07
1.12046e-07
-1.6155e-07
1.33691e-07
-2.11899e-07
1.58407e-07
-2.70803e-07
1.86417e-07
-3.38756e-07
2.17893e-07
-4.16052e-07
2.5295e-07
-5.0271e-07
2.91628e-07
-5.98442e-07
3.33874e-07
-7.0257e-07
3.79532e-07
-8.13988e-07
4.28344e-07
-9.31155e-07
4.7996e-07
-1.05221e-06
5.33949e-07
-1.17468e-06
-1.29879e-06
5.89916e-07
1.28818e-10
2.16209e-09
5.43211e-10
6.1217e-09
1.29361e-09
9.83837e-09
2.43839e-09
1.31423e-08
4.04501e-09
1.58291e-08
6.19118e-09
1.76564e-08
8.96622e-09
1.83395e-08
1.24727e-08
1.75474e-08
1.68276e-08
1.48991e-08
2.21634e-08
9.96106e-09
2.86297e-08
2.24418e-09
3.63936e-08
-8.79653e-09
4.56401e-08
-2.3761e-08
5.65724e-08
-4.33013e-08
6.94097e-08
-6.8114e-08
8.43851e-08
-9.89285e-08
1.01741e-07
-1.3649e-07
1.21723e-07
-1.81532e-07
1.44569e-07
-2.34746e-07
1.70502e-07
-2.96736e-07
1.99711e-07
-3.67965e-07
2.32327e-07
-4.48668e-07
2.6842e-07
-5.38803e-07
3.07975e-07
-6.37998e-07
3.50881e-07
-7.45476e-07
3.96923e-07
-8.60029e-07
4.45788e-07
-9.80019e-07
4.97072e-07
-1.1035e-06
5.50326e-07
-1.22794e-06
-1.35352e-06
6.05062e-07
1.45569e-10
2.01652e-09
6.12628e-10
5.65465e-09
1.4563e-09
8.9947e-09
2.73991e-09
1.18587e-08
4.53598e-09
1.4033e-08
6.92741e-09
1.52649e-08
1.0009e-08
1.5258e-08
1.38883e-08
1.36681e-08
1.86871e-08
1.01002e-08
2.45428e-08
4.1054e-09
3.16086e-08
-4.82158e-09
4.00544e-08
-1.72423e-08
5.0067e-08
-3.37737e-08
6.18493e-08
-5.50836e-08
7.56181e-08
-8.18828e-08
9.16008e-08
-1.14911e-07
1.1003e-07
-1.54919e-07
1.31137e-07
-2.02639e-07
1.55142e-07
-2.5875e-07
1.82239e-07
-3.23833e-07
2.12582e-07
-3.98308e-07
2.46261e-07
-4.82346e-07
2.83297e-07
-5.75839e-07
3.23621e-07
-6.78322e-07
3.67062e-07
-7.88917e-07
4.13346e-07
-9.06313e-07
4.62106e-07
-1.02878e-06
5.1289e-07
-1.15428e-06
5.65261e-07
-1.28031e-06
-1.40688e-06
6.18622e-07
1.61595e-10
1.85493e-09
6.79187e-10
5.13705e-09
1.61257e-09
8.06131e-09
3.02996e-09
1.04413e-08
5.00897e-09
1.2054e-08
7.63769e-09
1.26362e-08
1.10162e-08
1.18795e-08
1.52573e-08
9.42698e-09
2.04877e-08
4.86983e-09
2.68491e-08
-2.25593e-09
3.44983e-08
-1.24708e-08
4.36081e-08
-2.63522e-08
5.43668e-08
-4.45324e-08
6.69765e-08
-6.76933e-08
8.16506e-08
-9.65569e-08
9.86102e-08
-1.31871e-07
1.18077e-07
-1.74386e-07
1.40268e-07
-2.24829e-07
1.65379e-07
-2.83862e-07
1.9358e-07
-3.52034e-07
2.24983e-07
-4.29711e-07
2.59637e-07
-5.17e-07
2.97513e-07
-6.13715e-07
3.38487e-07
-7.19296e-07
3.82329e-07
-8.32759e-07
4.28706e-07
-9.5269e-07
4.77197e-07
-1.07727e-06
5.27306e-07
-1.20439e-06
5.78637e-07
-1.33164e-06
-1.45871e-06
6.30466e-07
1.76986e-10
1.67794e-09
7.43215e-10
4.57082e-09
1.76309e-09
7.04143e-09
3.30967e-09
8.89471e-09
5.46557e-09
9.89813e-09
8.32417e-09
9.7776e-09
1.19906e-08
8.21299e-09
1.65829e-08
4.83476e-09
2.22324e-08
-7.79705e-10
2.90851e-08
-9.10859e-09
3.73014e-08
-2.06872e-08
4.70567e-08
-3.61075e-08
5.854e-08
-5.60156e-08
7.19521e-08
-8.11054e-08
8.75026e-08
-1.12107e-07
1.05405e-07
-1.49773e-07
1.2587e-07
-1.94851e-07
1.49095e-07
-2.48055e-07
1.75256e-07
-3.10023e-07
2.0449e-07
-3.81267e-07
2.36869e-07
-4.6209e-07
2.72401e-07
-5.52532e-07
3.11006e-07
-6.5232e-07
3.52502e-07
-7.60792e-07
3.96603e-07
-8.7686e-07
4.42919e-07
-9.99006e-07
4.90974e-07
-1.12533e-06
5.4023e-07
-1.25365e-06
5.90352e-07
-1.38176e-06
-1.50877e-06
6.40414e-07
1.91842e-10
1.4861e-09
8.05084e-10
3.95758e-09
1.90865e-09
5.93786e-09
3.58034e-09
7.22302e-09
5.90769e-09
7.57078e-09
8.98926e-09
6.69603e-09
1.29352e-08
4.26702e-09
1.78684e-08
-9.84358e-11
2.3925e-08
-6.83624e-09
3.12548e-08
-1.64384e-08
4.00217e-08
-2.94541e-08
5.04031e-08
-4.64889e-08
6.25882e-08
-6.82008e-08
7.67761e-08
-9.52932e-08
9.31713e-08
-1.28503e-07
1.11979e-07
-1.68581e-07
1.33396e-07
-2.16268e-07
1.57602e-07
-2.72261e-07
1.84748e-07
-3.37169e-07
2.14937e-07
-4.11456e-07
2.48202e-07
-4.95355e-07
2.84505e-07
-5.88836e-07
3.23717e-07
-6.91531e-07
3.65601e-07
-8.02676e-07
4.09815e-07
-9.21075e-07
4.55914e-07
-1.0451e-06
5.03368e-07
-1.17278e-06
5.51592e-07
-1.30187e-06
6.00315e-07
-1.43049e-06
-1.55674e-06
6.48286e-07
2.06263e-10
1.27983e-09
8.65159e-10
3.29869e-09
2.05002e-09
4.753e-09
3.84327e-09
5.42978e-09
6.33734e-09
5.07671e-09
9.63563e-09
3.39773e-09
1.38533e-08
4.93599e-11
1.91178e-08
-5.36292e-09
2.55696e-08
-1.32881e-08
3.33626e-08
-2.42314e-08
4.26634e-08
-3.87549e-08
5.3651e-08
-5.74764e-08
6.65142e-08
-8.1064e-08
8.14492e-08
-1.10228e-07
9.86549e-08
-1.45708e-07
1.18326e-07
-1.88252e-07
1.40646e-07
-2.38587e-07
1.65773e-07
-2.97389e-07
1.93833e-07
-3.65229e-07
2.2489e-07
-4.42513e-07
2.58941e-07
-5.29406e-07
2.95903e-07
-6.25797e-07
3.35593e-07
-7.31222e-07
3.77726e-07
-8.44809e-07
4.21909e-07
-9.65257e-07
4.67643e-07
-1.09084e-06
5.14344e-07
-1.21948e-06
5.61355e-07
-1.34888e-06
6.08406e-07
-1.47754e-06
-1.6022e-06
6.53862e-07
2.20354e-10
1.05948e-09
9.23827e-10
2.59521e-09
2.18802e-09
3.48881e-09
4.09982e-09
3.51798e-09
6.75641e-09
2.42012e-09
1.02659e-08
-1.11733e-10
1.47479e-08
-4.4327e-09
2.03347e-08
-1.09496e-08
2.71706e-08
-2.0124e-08
3.5413e-08
-3.24737e-08
4.52309e-08
-4.85729e-08
5.68041e-08
-6.90496e-08
7.03204e-08
-9.45803e-08
8.59723e-08
-1.2588e-07
1.03951e-07
-1.63687e-07
1.24442e-07
-2.08742e-07
1.4761e-07
-2.61755e-07
1.73594e-07
-3.23372e-07
2.02488e-07
-3.94123e-07
2.34321e-07
-4.74346e-07
2.6905e-07
-5.64136e-07
3.06547e-07
-6.63294e-07
3.46582e-07
-7.71257e-07
3.88822e-07
-8.87049e-07
4.32834e-07
-1.00927e-06
4.7808e-07
-1.13608e-06
5.23942e-07
-1.26534e-06
5.69668e-07
-1.39461e-06
6.14642e-07
-1.52251e-06
-1.64443e-06
6.56872e-07
2.34201e-10
8.2528e-10
9.81413e-10
1.848e-09
2.32335e-09
2.14687e-09
4.35126e-09
1.49007e-09
7.16674e-09
-3.95363e-10
1.08824e-08
-3.82735e-09
1.56223e-08
-9.17262e-09
2.15227e-08
-1.68501e-08
2.87319e-08
-2.73333e-08
3.74101e-08
-4.11519e-08
4.7728e-08
-5.88908e-08
5.98656e-08
-8.11872e-08
7.40088e-08
-1.08724e-07
9.03453e-08
-1.42217e-07
1.09058e-07
-1.82401e-07
1.30319e-07
-2.30003e-07
1.54277e-07
-2.85713e-07
1.81046e-07
-3.50142e-07
2.10689e-07
-4.23766e-07
2.43198e-07
-5.06855e-07
2.78491e-07
-5.99429e-07
3.16394e-07
-7.01197e-07
3.56632e-07
-8.11495e-07
3.98833e-07
-9.2925e-07
4.42533e-07
-1.05297e-06
4.87191e-07
-1.18074e-06
5.32223e-07
-1.31038e-06
5.76918e-07
-1.4393e-06
6.20021e-07
-1.56561e-06
-1.68122e-06
6.56812e-07
2.47891e-10
5.77389e-10
1.03824e-09
1.05766e-09
2.45668e-09
7.28426e-10
4.59864e-09
-6.51891e-10
7.56989e-09
-3.36661e-09
1.14872e-08
-7.74468e-09
1.64789e-08
-1.41643e-08
2.2685e-08
-2.30561e-08
3.02569e-08
-3.49052e-08
3.93572e-08
-5.02522e-08
5.01577e-08
-6.96914e-08
6.28379e-08
-9.38673e-08
7.75805e-08
-1.23466e-07
9.45672e-08
-1.59203e-07
1.13972e-07
-2.01805e-07
1.35952e-07
-2.51983e-07
1.60636e-07
-3.10397e-07
1.88115e-07
-3.7762e-07
2.18414e-07
-4.54066e-07
2.51493e-07
-5.39933e-07
2.87227e-07
-6.35163e-07
3.25398e-07
-7.39368e-07
3.65688e-07
-8.51785e-07
4.07689e-07
-9.71251e-07
4.50912e-07
-1.09619e-06
4.94836e-07
-1.22467e-06
5.38969e-07
-1.35451e-06
5.82971e-07
-1.4833e-06
6.26635e-07
-1.60928e-06
-1.72783e-06
6.73245e-07
2.61491e-10
3.15898e-10
1.09454e-09
2.24604e-10
2.58858e-09
-7.65608e-10
4.84287e-09
-2.90619e-09
7.96717e-09
-6.49091e-09
1.20822e-08
-1.18597e-08
1.73199e-08
-1.94021e-08
2.38237e-08
-2.95599e-08
3.17478e-08
-4.28293e-08
4.12564e-08
-5.97607e-08
5.25217e-08
-8.09567e-08
6.57213e-08
-1.07067e-07
8.10343e-08
-1.38779e-07
9.8635e-08
-1.76804e-07
1.18686e-07
-2.21856e-07
1.41329e-07
-2.74626e-07
1.66672e-07
-3.35741e-07
1.94778e-07
-4.05726e-07
2.25637e-07
-4.84926e-07
2.59173e-07
-5.7347e-07
2.9522e-07
-6.7121e-07
3.33515e-07
-7.77663e-07
3.73699e-07
-8.91969e-07
4.15324e-07
-1.01288e-06
4.57875e-07
-1.13874e-06
5.00823e-07
-1.26762e-06
5.43685e-07
-1.39737e-06
5.86148e-07
-1.52577e-06
6.28029e-07
-1.65116e-06
-1.76948e-06
6.69681e-07
2.75058e-10
4.08395e-11
1.15054e-09
-6.5088e-10
2.71943e-09
-2.33449e-09
5.08463e-09
-5.27139e-09
8.35956e-09
-9.76583e-09
1.26685e-08
-1.61686e-08
1.81468e-08
-2.48803e-08
2.49406e-08
-3.63537e-08
3.32062e-08
-5.10949e-08
4.31088e-08
-6.96633e-08
5.48202e-08
-9.2668e-08
6.85153e-08
-1.20762e-07
8.43679e-08
-1.54632e-07
1.02544e-07
-1.9498e-07
1.23193e-07
-2.42506e-07
1.4644e-07
-2.97872e-07
1.72371e-07
-3.61672e-07
2.01016e-07
-4.3437e-07
2.32334e-07
-5.16244e-07
2.66211e-07
-6.07346e-07
3.02438e-07
-7.07437e-07
3.4071e-07
-8.15935e-07
3.80628e-07
-9.31887e-07
4.21707e-07
-1.05396e-06
4.63407e-07
-1.18044e-06
5.05183e-07
-1.30939e-06
5.46532e-07
-1.43872e-06
5.87073e-07
-1.56631e-06
6.26466e-07
-1.69055e-06
-1.80769e-06
6.64672e-07
2.88625e-10
-2.47786e-10
1.20637e-09
-1.56862e-09
2.84952e-09
-3.97764e-09
5.32436e-09
-7.74623e-09
8.74767e-09
-1.31891e-08
1.32469e-08
-2.06679e-08
1.89602e-08
-3.05937e-08
2.60361e-08
-4.34296e-08
3.46323e-08
-5.96911e-08
4.49142e-08
-7.99452e-08
5.7052e-08
-1.04806e-07
7.12172e-08
-1.34927e-07
8.7577e-08
-1.70991e-07
1.06287e-07
-2.1369e-07
1.27484e-07
-2.63703e-07
1.51273e-07
-3.21661e-07
1.77715e-07
-3.88114e-07
2.06808e-07
-4.63463e-07
2.3848e-07
-5.47917e-07
2.72577e-07
-6.41443e-07
3.0885e-07
-7.43709e-07
3.46953e-07
-8.54038e-07
3.8645e-07
-9.71385e-07
4.26824e-07
-1.09433e-06
4.67517e-07
-1.22113e-06
5.07973e-07
-1.34985e-06
5.47681e-07
-1.47843e-06
5.86227e-07
-1.60485e-06
6.23255e-07
-1.72758e-06
-1.8432e-06
6.5876e-07
3.02219e-10
-5.50005e-10
1.26209e-09
-2.5285e-09
2.97898e-09
-5.69453e-09
5.56226e-09
-1.03295e-08
9.13169e-09
-1.67586e-08
1.38175e-08
-2.53537e-08
1.97602e-08
-3.65364e-08
2.711e-08
-5.07794e-08
3.60253e-08
-6.86064e-08
4.66708e-08
-9.05907e-08
5.92144e-08
-1.17349e-07
7.38226e-08
-1.49536e-07
9.0655e-08
-1.87824e-07
1.09856e-07
-2.32891e-07
1.31546e-07
-2.85393e-07
1.55811e-07
-3.45926e-07
1.82684e-07
-4.14987e-07
2.12131e-07
-4.92911e-07
2.44049e-07
-5.79835e-07
2.78245e-07
-6.75638e-07
3.14429e-07
-7.79894e-07
3.52221e-07
-8.9183e-07
3.91148e-07
-1.01031e-06
4.3067e-07
-1.13385e-06
4.70221e-07
-1.26069e-06
5.09245e-07
-1.38887e-06
5.47241e-07
-1.51642e-06
5.83809e-07
-1.64142e-06
6.18651e-07
-1.76242e-06
-1.87642e-06
6.51872e-07
3.15842e-10
-8.65847e-10
1.31772e-09
-3.53037e-09
3.1078e-09
-7.48462e-09
5.79826e-09
-1.302e-08
9.51145e-09
-2.04718e-08
1.43799e-08
-3.02222e-08
2.0546e-08
-4.27025e-08
2.81609e-08
-5.83942e-08
3.7383e-08
-7.78285e-08
4.83755e-08
-1.01583e-07
6.13028e-08
-1.30277e-07
7.63253e-08
-1.64558e-07
9.35936e-08
-2.05092e-07
1.13239e-07
-2.52537e-07
1.35366e-07
-3.0752e-07
1.60038e-07
-3.70597e-07
1.87258e-07
-4.42207e-07
2.16965e-07
-5.22618e-07
2.49018e-07
-6.11888e-07
2.83189e-07
-7.09809e-07
3.19152e-07
-8.15857e-07
3.56491e-07
-9.29169e-07
3.94706e-07
-1.04853e-06
4.33244e-07
-1.17239e-06
4.71536e-07
-1.29898e-06
5.09039e-07
-1.42637e-06
5.45279e-07
-1.55266e-06
5.79899e-07
-1.67604e-06
6.12676e-07
-1.7952e-06
-1.90759e-06
6.4385e-07
3.29481e-10
-1.19533e-09
1.37318e-09
-4.57407e-09
3.23583e-09
-9.34727e-09
6.03203e-09
-1.58162e-08
9.88636e-09
-2.43261e-08
1.49332e-08
-3.5269e-08
2.13161e-08
-4.90854e-08
2.91867e-08
-6.62648e-08
3.87023e-08
-8.73442e-08
5.00239e-08
-1.12905e-07
6.33111e-08
-1.43564e-07
7.87174e-08
-1.79964e-07
9.63827e-08
-2.22757e-07
1.16425e-07
-2.72579e-07
1.38929e-07
-3.30024e-07
1.63934e-07
-3.95602e-07
1.91416e-07
-4.69689e-07
2.21284e-07
-5.52485e-07
2.53362e-07
-6.43967e-07
2.87386e-07
-7.43833e-07
3.22997e-07
-8.51468e-07
3.59749e-07
-9.65921e-07
3.9712e-07
-1.0859e-06
4.34551e-07
-1.20982e-06
4.7148e-07
-1.33591e-06
5.07389e-07
-1.46228e-06
5.41842e-07
-1.58712e-06
5.74538e-07
-1.70874e-06
6.05329e-07
-1.82599e-06
-1.93685e-06
6.34588e-07
3.4311e-10
-1.53844e-09
1.42837e-09
-5.65934e-09
3.36278e-09
-1.12817e-08
6.26303e-09
-1.87164e-08
1.02555e-08
-2.83186e-08
1.54759e-08
-4.04894e-08
2.20684e-08
-5.56779e-08
3.01842e-08
-7.43805e-08
3.99791e-08
-9.71391e-08
5.16104e-08
-1.24536e-07
6.52322e-08
-1.57186e-07
8.09895e-08
-1.95722e-07
9.90107e-08
-2.40778e-07
1.19398e-07
-2.92967e-07
1.42217e-07
-3.52843e-07
1.67481e-07
-4.20865e-07
1.95138e-07
-4.97346e-07
2.25066e-07
-5.82413e-07
2.57058e-07
-6.75958e-07
2.90814e-07
-7.77589e-07
3.25946e-07
-8.866e-07
3.6198e-07
-1.00196e-06
3.98383e-07
-1.1223e-06
4.34597e-07
-1.24603e-06
4.70075e-07
-1.37138e-06
5.04328e-07
-1.49654e-06
5.36971e-07
-1.61976e-06
5.67763e-07
-1.73953e-06
5.96621e-07
-1.85485e-06
-1.96427e-06
6.24045e-07
3.56685e-10
-1.89512e-09
1.48312e-09
-6.78577e-09
3.48825e-09
-1.32868e-08
6.4905e-09
-2.17187e-08
1.06176e-08
-3.24457e-08
1.60061e-08
-4.58779e-08
2.28001e-08
-6.24719e-08
3.11496e-08
-8.27301e-08
4.1208e-08
-1.07198e-07
5.31282e-08
-1.36456e-07
6.70574e-08
-1.71115e-07
8.3131e-08
-2.11795e-07
1.01465e-07
-2.59112e-07
1.22144e-07
-3.13646e-07
1.45213e-07
-3.75912e-07
1.70657e-07
-4.4631e-07
1.98401e-07
-5.2509e-07
2.2829e-07
-6.12302e-07
2.60084e-07
-7.07752e-07
2.93453e-07
-8.10958e-07
3.27982e-07
-9.21129e-07
3.63177e-07
-1.03715e-06
3.98499e-07
-1.15762e-06
4.33397e-07
-1.28093e-06
4.67344e-07
-1.40533e-06
4.99891e-07