/*--------------------------------*- C++ -*----------------------------------*\
| =========                 |                                                 |
| \\      /  F ield         | foam-extend: Open Source CFD                    |
|  \\    /   O peration     | Version:     4.0                                |
|   \\  /    A nd           | Web:         http://www.foam-extend.org         |
|    \\/     M anipulation  |                                                 |
\*---------------------------------------------------------------------------*/
FoamFile
{
    version     2.0;
    format      ascii;
    class       volVectorField;
    location    "20";
    object      U;
}
// * * * * * * * * * * * * * * * * * * * * * * * * * * * * * * * * * * * * * //

dimensions      [0 1 -1 0 0 0 0];

internalField   nonuniform List<vector> 
36000
(
(-4.4758e-07 2.01234e-06 -1.80754e-25)
(-4.29661e-06 5.5696e-06 1.86624e-25)
(-1.20872e-05 8.7583e-06 0)
(-2.36801e-05 1.15502e-05 0)
(-3.87996e-05 1.39185e-05 -1.64283e-25)
(-5.7141e-05 1.58373e-05 -1.56006e-25)
(-7.83402e-05 1.72815e-05 0)
(-0.00010194 1.82283e-05 0)
(-0.000127378 1.8657e-05 0)
(-0.000153989 1.85496e-05 0)
(-0.000180996 1.78908e-05 0)
(-0.000207514 1.66686e-05 -2.12403e-25)
(-0.000232546 1.48744e-05 3.33844e-28)
(-0.000254984 1.25038e-05 -1.82807e-25)
(-0.000273615 9.55651e-06 1.6618e-25)
(-0.000287128 6.03721e-06 -1.54597e-25)
(-0.000294103 1.95494e-06 2.79068e-25)
(-0.000293099 -2.64236e-06 -1.236e-25)
(-0.000282571 -7.76745e-06 1.14581e-25)
(-0.00026094 -1.33707e-05 2.9804e-25)
(-0.000226639 -1.93972e-05 -4.91194e-27)
(-0.000178142 -2.57805e-05 3.01234e-25)
(-0.000114022 -3.24372e-05 -6.8015e-26)
(-3.30016e-05 -3.92655e-05 -1.04738e-25)
(6.59744e-05 -4.614e-05 -8.65454e-26)
(0.000183631 -5.29188e-05 0)
(0.00032033 -5.94429e-05 0)
(0.000475975 -6.5537e-05 0)
(0.000649772 -7.10102e-05 2.63785e-26)
(0.000841335 -7.57014e-05 -4.04218e-26)
(-6.54259e-07 6.04269e-06 0)
(-4.83631e-06 1.6723e-05 0)
(-1.28791e-05 2.62951e-05 0)
(-2.46408e-05 3.46733e-05 6.93651e-25)
(-3.98445e-05 4.1777e-05 -1.61201e-25)
(-5.81839e-05 4.7527e-05 1.55991e-25)
(-7.92934e-05 5.18481e-05 0)
(-0.000102715 5.46709e-05 0)
(-0.000127885 5.59326e-05 -5.25119e-25)
(-0.000154139 5.55784e-05 4.92531e-25)
(-0.0001807 5.35621e-05 -4.58868e-25)
(-0.000206684 4.98473e-05 4.29132e-25)
(-0.000231095 4.44079e-05 1.98011e-25)
(-0.000252829 3.72301e-05 1.8676e-25)
(-0.000270674 2.83142e-05 3.39042e-25)
(-0.000283321 1.76765e-05 0)
(-0.000289369 5.35234e-06 -8.31174e-25)
(-0.000287352 -8.57397e-06 1.54382e-26)
(-0.000275745 -2.40502e-05 9.04468e-25)
(-0.000252985 -4.09636e-05 -6.11382e-25)
(-0.000217514 -5.91524e-05 -3.5585e-25)
(-0.000167821 -7.84124e-05 2.99984e-25)
(-0.000102493 -9.84899e-05 -2.73995e-25)
(-2.0274e-05 -0.000119075 4.48442e-25)
(7.98644e-05 -0.000139789 9.98558e-27)
(0.000198623 -0.0001602 2.96994e-25)
(0.000336334 -0.000179829 -3.62447e-25)
(0.000492868 -0.000198145 0)
(0.000667359 -0.000214572 0)
(0.000859614 -0.000228624 0)
(-1.06312e-06 9.9932e-06 7.33875e-25)
(-5.90371e-06 2.76568e-05 7.2126e-27)
(-1.44446e-05 4.34886e-05 -1.09416e-24)
(-2.6539e-05 5.73461e-05 1.39982e-24)
(-4.19074e-05 6.90941e-05 -1.65501e-24)
(-6.024e-05 7.86007e-05 -1.26403e-24)
(-8.11685e-05 8.57398e-05 2.38686e-24)
(-0.000104232 9.03953e-05 -1.12484e-24)
(-0.000128867 9.24623e-05 0)
(-0.000154408 9.18488e-05 0)
(-0.000180079 8.84771e-05 0)
(-0.000204997 8.22856e-05 0)
(-0.00022817 7.32305e-05 7.96478e-25)
(-0.000248496 6.12884e-05 -1.84505e-24)
(-0.000264771 4.64589e-05 1.36762e-24)
(-0.000275693 2.87683e-05 0)
(-0.000279871 8.28444e-06 5.57512e-25)
(-0.000275846 -1.48857e-05 -5.17454e-25)
(-0.000262099 -4.06208e-05 0)
(-0.000237091 -6.87333e-05 0)
(-0.000199289 -9.89602e-05 1.77433e-24)
(-0.00014721 -0.000130962 -9.52487e-25)
(-7.94764e-05 -0.000164315 0)
(5.13128e-06 -0.000198502 -1.80747e-26)
(0.000107584 -0.000232889 -3.96254e-25)
(0.000228536 -0.000266762 -3.34527e-25)
(0.000368257 -0.000299318 1.9484e-25)
(0.000526557 -0.000329674 1.69864e-25)
(0.000702419 -0.000356879 0)
(0.000896062 -0.00038011 2.52435e-25)
(-1.66444e-06 1.38125e-05 0)
(-7.4731e-06 3.82297e-05 0)
(-1.67452e-05 6.01176e-05 3.67587e-25)
(-2.93265e-05 7.92772e-05 -1.41851e-24)
(-4.49329e-05 9.55192e-05 2.6916e-24)
(-6.32498e-05 0.000108658 -1.91866e-24)
(-8.39042e-05 0.000118518 0)
(-0.000106432 0.000124935 0)
(-0.000130267 0.000127761 -1.61227e-24)
(-0.000154743 0.000126867 2.009e-24)
(-0.000179086 0.000122142 -9.39985e-25)
(-0.000202416 0.0001135 -8.80784e-25)
(-0.000223742 0.000100877 1.61287e-24)
(-0.000241972 8.42403e-05 -1.50432e-24)
(-0.000255907 6.35864e-05 -6.83649e-25)
(-0.000264255 3.89569e-05 0)
(-0.000265642 1.04393e-05 -2.28699e-24)
(-0.00025862 -2.18289e-05 4.32816e-27)
(-0.000241689 -5.76621e-05 1.85068e-24)
(-0.000213336 -9.67923e-05 -8.24476e-27)
(-0.000172065 -0.000138855 -1.34167e-26)
(-0.000116435 -0.000183377 -4.04968e-26)
(-4.5121e-05 -0.000229766 -5.6736e-25)
(4.30369e-05 -0.000277295 9.4121e-25)
(0.00014893 -0.000325083 0)
(0.000273141 -0.000372134 3.21533e-26)
(0.000415842 -0.000417324 9.92988e-25)
(0.000576756 -0.000459421 -4.47317e-25)
(0.000754637 -0.000497114 -8.87401e-25)
(0.000950343 -0.000529218 -5.72957e-25)
(-2.444e-06 1.74522e-05 1.13541e-24)
(-9.50669e-06 4.83075e-05 -2.35123e-24)
(-1.97242e-05 7.59719e-05 1.50089e-24)
(-3.2932e-05 0.00010019 1.44319e-24)
(-4.88396e-05 0.000120718 -1.36527e-24)
(-6.71257e-05 0.000137319 6.44207e-25)
(-8.74103e-05 0.000149764 -1.83973e-24)
(-0.000109224 0.000157842 4.63344e-24)
(-0.000132 0.000161363 -5.37555e-25)
(-0.000155067 0.000160157 1.03082e-24)
(-0.000177655 0.000154082 -9.62869e-25)
(-0.000198885 0.000143023 8.80733e-25)
(-0.000217773 0.000126897 0)
(-0.000233231 0.000105659 0)
(-0.000244074 7.93082e-05 2.80221e-24)
(-0.000249023 4.78907e-05 -1.29184e-24)
(-0.000246719 1.15136e-05 1.15596e-24)
(-0.000235734 -2.96506e-05 1.04557e-24)
(-0.000214599 -7.53545e-05 -1.89864e-24)
(-0.000181833 -0.00012525 -2.51877e-24)
(-0.000135986 -0.000178869 7.64475e-25)
(-7.56739e-05 -0.000235607 2.58613e-24)
(3.60881e-07 -0.000294701 -1.16517e-24)
(9.31913e-05 -0.000355214 3.2703e-26)
(0.000203613 -0.000416027 8.1497e-25)
(0.000332106 -0.000475862 -6.68365e-25)
(0.000478717 -0.000533279 -4.79908e-25)
(0.000643051 -0.000586706 7.66801e-26)
(0.000823551 -0.000634484 2.88128e-25)
(0.00102194 -0.000675033 3.92372e-25)
(-3.38347e-06 2.08674e-05 3.47594e-24)
(-1.19558e-05 5.77664e-05 -7.95738e-25)
(-2.33083e-05 9.08564e-05 0)
(-3.72633e-05 0.000119827 -7.43952e-25)
(-5.35219e-05 0.00014438 -3.50898e-24)
(-7.17536e-05 0.000164226 3.9866e-24)
(-9.15695e-05 0.000179085 1.88852e-24)
(-0.000112494 0.000188698 -1.1658e-24)
(-0.000133954 0.000192829 1.12015e-24)
(-0.000155279 0.00019127 -5.19174e-24)
(-0.000175696 0.000183845 2.90958e-24)
(-0.000194331 0.00017041 -8.88909e-25)
(-0.000210206 0.000150862 3.35644e-24)
(-0.000222242 0.000125143 -1.55912e-24)
(-0.000229267 9.32482e-05 -4.27593e-24)
(-0.000230016 5.52304e-05 2.61457e-24)
(-0.000223149 1.12154e-05 -2.38245e-24)
(-0.000207268 -3.85884e-05 -5.70122e-28)
(-0.000180938 -9.38738e-05 -1.01018e-24)
(-0.000142726 -0.000154214 -8.41763e-25)
(-9.12345e-05 -0.000219036 3.06596e-24)
(-2.51506e-05 -0.000287603 -2.70541e-24)
(5.66998e-05 -0.000358983 0)
(0.000155277 -0.00043203 -1.03716e-24)
(0.000271266 -0.000505392 -8.99203e-25)
(0.000405013 -0.000577514 -1.46298e-24)
(0.000556406 -0.000646643 1.13337e-24)
(0.000724912 -0.000710876 0)
(0.000908569 -0.00076823 1.57908e-24)
(0.00111019 -0.000816682 -2.62272e-25)
(-4.46096e-06 2.4018e-05 0)
(-1.4762e-05 6.64949e-05 0)
(-2.74096e-05 0.000104595 0)
(-4.22095e-05 0.000137954 -1.94303e-26)
(-5.88524e-05 0.000166222 5.02632e-24)
(-7.69957e-05 0.000189054 -4.04943e-24)
(-9.62393e-05 0.00020612 2.56657e-24)
(-0.000116098 0.000217113 -4.83386e-24)
(-0.000135994 0.000221753 -1.14989e-24)
(-0.000155252 0.000219789 -2.12507e-24)
(-0.000173098 0.000211011 1.99029e-24)
(-0.000188662 0.000195246 9.29582e-25)
(-0.000200974 0.000172369 1.59188e-26)
(-0.000208963 0.000142308 0)
(-0.000211469 0.00010505 -3.60071e-26)
(-0.000207247 6.0655e-05 1.29792e-24)
(-0.000194982 9.26698e-06 -1.22888e-24)
(-0.000173308 -4.88695e-05 1.09423e-24)
(-0.000140835 -0.000113391 3.99829e-24)
(-9.61838e-05 -0.00018379 -6.50642e-26)
(-3.80257e-05 -0.000259391 -1.68483e-24)
(3.48707e-05 -0.000339323 -1.3613e-24)
(0.000123573 -0.000422483 1.41324e-26)
(0.000228917 -0.000507526 -1.10205e-24)
(0.000351452 -0.000592869 -1.78711e-24)
(0.00049136 -0.000676678 2.20923e-24)
(0.000648341 -0.000756902 -5.08514e-25)
(0.000821706 -0.000831311 -8.45874e-25)
(0.00100897 -0.000897629 -1.26267e-24)
(0.00121432 -0.000953341 5.76752e-25)
(-5.6516e-06 2.68692e-05 -3.27195e-24)
(-1.7859e-05 7.43957e-05 0)
(-3.19277e-05 0.000117034 -3.2563e-24)
(-4.7644e-05 0.000154367 3.8498e-24)
(-6.4685e-05 0.000185992 -4.39512e-24)
(-8.26934e-05 0.000211513 5.56817e-24)
(-0.000101255 0.000230548 -5.26012e-24)
(-0.000119873 0.000242742 1.22228e-24)
(-0.00013796 0.000247768 2.29801e-24)
(-0.000154838 0.000245335 -3.26386e-26)
(-0.000169731 0.000235197 -4.10489e-24)
(-0.00018177 0.000217152 3.7822e-24)
(-0.000189992 0.000191049 -3.54947e-24)
(-0.000193337 0.000156799 -6.51003e-24)
(-0.000190657 0.000114383 4.49857e-24)
(-0.000180729 6.38643e-05 1.35821e-24)
(-0.000162268 5.40651e-06 -3.791e-24)
(-0.000133947 -6.07106e-05 -2.31829e-24)
(-9.44289e-05 -0.000134068 -2.02826e-24)
(-4.23962e-05 -0.00021408 5.50295e-24)
(2.33982e-05 -0.000299969 -1.73289e-24)
(0.000104089 -0.000390726 -1.2658e-26)
(0.000200619 -0.000485084 -2.63324e-24)
(0.000313686 -0.000581504 4.32763e-24)
(0.000443674 -0.000678167 1.7865e-24)
(0.000590576 -0.000772973 -1.48344e-24)
(0.000753874 -0.000863577 1.22627e-25)
(0.000932701 -0.000947435 1.07018e-24)
(0.00112394 -0.001022 1.4291e-24)
(0.00133343 -0.00108425 -1.82302e-24)
(-6.92823e-06 2.93922e-05 3.38671e-24)
(-2.1174e-05 8.13874e-05 -4.38731e-24)
(-3.67524e-05 0.000128043 -3.35481e-24)
(-5.34267e-05 0.000168891 3.17984e-24)
(-7.08579e-05 0.000203477 3.02955e-24)
(-8.86704e-05 0.000231353 -1.40645e-24)
(-0.000106433 0.000252088 0)
(-0.000123634 0.000265278 0)
(-0.000139675 0.000270551 1.1801e-24)
(-0.000153872 0.000267573 2.21076e-24)
(-0.000165444 0.000256064 6.24113e-24)
(-0.000173527 0.000235786 -3.90599e-24)
(-0.00017716 0.000206566 -5.06661e-26)
(-0.000175292 0.000168295 3.33056e-24)
(-0.000166794 0.000120944 -1.60288e-24)
(-0.000150465 6.45837e-05 -2.85305e-24)
(-0.000125055 -6.06622e-07 7.74755e-24)
(-8.92821e-05 -7.43111e-05 2.26469e-24)
(-4.18671e-05 -0.000156057 9.21023e-27)
(1.84336e-05 -0.000245182 -1.37153e-27)
(9.27765e-05 -0.000340805 -6.44773e-26)
(0.000182175 -0.000441778 1.46337e-24)
(0.000287441 -0.000546682 3.90342e-24)
(0.000409112 -0.00065378 1.09844e-25)
(0.000547382 -0.000761022 1.84714e-24)
(0.000702028 -0.000866046 -4.90251e-24)
(0.000872285 -0.000966226 -2.50559e-24)
(0.00105705 -0.0010587 1.52256e-25)
(0.00125257 -0.00114074 9.14213e-25)
(0.00146649 -0.0012087 1.18683e-24)
(-8.26208e-06 3.15645e-05 -2.61244e-24)
(-2.46297e-05 8.74055e-05 4.50578e-24)
(-4.1766e-05 0.000137518 -1.75771e-24)
(-5.94081e-05 0.000181383 4.9644e-24)
(-7.71972e-05 0.000218499 -3.11503e-24)
(-9.47364e-05 0.000248367 -1.45407e-24)
(-0.000111573 0.000270507 -5.57278e-24)
(-0.000127179 0.000284466 5.24374e-24)
(-0.000140942 0.000289828 -2.49995e-24)
(-0.000152166 0.000286217 0)
(-0.000160071 0.000273315 -4.29754e-24)
(-0.000163788 0.000250853 4.01947e-24)
(-0.00016236 0.000218626 -1.87457e-24)
(-0.000154744 0.00017651 3.46082e-24)
(-0.000139832 0.000124466 1.56647e-24)
(-0.00011645 6.25678e-05 0)
(-8.33841e-05 -8.98633e-06 8.61916e-26)
(-3.94036e-05 -8.98502e-05 0)
(1.67032e-05 -0.000179495 7.73463e-26)
(8.60975e-05 -0.000277183 3.96652e-24)
(0.000169828 -0.000381925 3.54045e-24)
(0.000268782 -0.000492452 1.45505e-24)
(0.000383618 -0.000607181 -8.16841e-24)
(0.000514693 -0.000724185 1.34471e-25)
(0.000661985 -0.000841188 0)
(0.000825032 -0.000955574 3.43776e-24)
(0.00100276 -0.00106443 3.26382e-26)
(0.00119387 -0.00116462 3.63784e-24)
(0.00139388 -0.00125328 0)
(0.00161241 -0.00132606 -1.45781e-24)
(-9.62349e-06 3.33698e-05 9.53614e-25)
(-2.81458e-05 9.24028e-05 1.90848e-24)
(-4.68462e-05 0.00014538 3.57612e-24)
(-6.54317e-05 0.000191738 -1.02019e-23)
(-8.35203e-05 0.000230925 4.79737e-24)
(-0.00010069 0.000262395 -4.54642e-24)
(-0.000116465 0.00028562 1.14914e-23)
(-0.000130293 0.000300101 -5.40756e-24)
(-0.000141549 0.000305375 5.07802e-24)
(-0.000149522 0.000301031 0)
(-0.000153427 0.000286707 0)
(-0.00015239 0.0002621 6.22047e-24)
(-0.000145453 0.00022698 -2.498e-26)
(-0.000131589 0.0001812 -3.56782e-24)
(-0.000109705 0.000124716 7.19337e-26)
(-7.86606e-05 5.76033e-05 -3.17658e-26)
(-3.72827e-05 -1.99246e-05 -5.45743e-24)
(1.56024e-05 -0.000107487 2.54154e-24)
(8.11371e-05 -0.000204502 -2.24232e-24)
(0.000160382 -0.000310155 2.03004e-24)
(0.000254272 -0.000423359 -7.35009e-24)
(0.000363553 -0.000542719 -6.53041e-24)
(0.000488711 -0.000666493 3.0902e-24)
(0.000629899 -0.000792566 5.14043e-24)
(0.000786858 -0.000918444 -2.21001e-24)
(0.00095884 -0.00104125 -1.76989e-24)
(0.00114447 -0.00115782 0)
(0.00134221 -0.00126476 -2.40272e-24)
(0.00154683 -0.00135913 0)
(0.00177002 -0.00143576 2.16761e-24)
(-1.09826e-05 3.47984e-05 -1.84269e-24)
(-3.16414e-05 9.63493e-05 5.87063e-24)
(-5.18684e-05 0.00015158 -7.32406e-24)
(-7.13374e-05 0.000199882 -5.99201e-26)
(-8.96394e-05 0.000240659 3.33104e-24)
(-0.000106324 0.00027332 -7.84274e-24)
(-0.000120886 0.000297292 5.93294e-24)
(-0.000132751 0.000312029 0)
(-0.000141271 0.000317026 2.6534e-24)
(-0.000145723 0.000311832 -7.39779e-24)
(-0.000145311 0.000296045 0)
(-0.00013915 0.000269329 -8.51683e-24)
(-0.000126287 0.000231425 3.97152e-24)
(-0.000105707 0.000182168 -3.72817e-24)
(-7.63362e-05 0.000121505 -3.26007e-24)
(-3.70656e-05 4.95139e-05 6.20297e-24)
(1.32325e-05 -3.35777e-05 0)
(7.56663e-05 -0.000127351 2.65387e-24)
(0.000151296 -0.000231174 4.67597e-24)
(0.000241082 -0.00034416 -8.68318e-24)
(0.00034583 -0.000465125 3.763e-24)
(0.000466128 -0.000592548 -3.47508e-24)
(0.00060227 -0.000724532 -2.93957e-24)
(0.000754184 -0.000858781 -2.70836e-24)
(0.000921344 -0.000992582 -1.37233e-25)
(0.00110269 -0.00112281 0)
(0.00129653 -0.00124608 -3.35665e-24)
(0.00150108 -0.00135874 0)
(0.00171029 -0.00145784 0)
(0.00193808 -0.00153733 1.5736e-24)
(-1.23099e-05 3.58466e-05 1.98269e-24)
(-3.50358e-05 9.92321e-05 -2.05029e-24)
(-5.67084e-05 0.000156091 -9.55177e-24)
(-7.69644e-05 0.000205776 9.05675e-24)
(-9.53646e-05 0.000247649 -8.58246e-24)
(-0.000111426 0.000281075 9.81363e-24)
(-0.000124612 0.000305438 -6.12873e-24)
(-0.000134318 0.000320151 1.15272e-23)
(-0.000139875 0.000324665 -5.41154e-24)
(-0.000140544 0.000318493 2.49064e-24)
(-0.000135507 0.000301193 2.31427e-24)
(-0.000123872 0.000272394 -4.48036e-24)
(-0.000104692 0.000231811 0)
(-7.69594e-05 0.000179264 3.80643e-24)
(-3.96241e-05 0.00011469 7.13098e-26)
(8.39022e-06 3.81663e-05 6.48177e-24)
(6.81599e-05 -5.00583e-05 -5.98416e-24)
(0.000140725 -0.000149535 2.69734e-24)
(0.000227059 -0.000259582 -4.81087e-24)
(0.000328007 -0.000379239 8.84623e-24)
(0.000444234 -0.000507227 0)
(0.000576151 -0.000641901 0)
(0.000723843 -0.000781215 6.15051e-24)
(0.000886994 -0.000922695 2.54218e-24)
(0.00106477 -0.00106341 -4.78195e-24)
(0.00125579 -0.00120001 -2.09031e-24)
(0.00145803 -0.00132891 3.3551e-24)
(0.00166945 -0.00144622 2.97929e-24)
(0.00188312 -0.00154905 2.45049e-24)
(0.00211532 -0.00163035 -1.91249e-24)
(-1.3577e-05 3.65167e-05 -1.00599e-23)
(-3.82505e-05 0.000101054 2.05028e-24)
(-6.12437e-05 0.000158915 0)
(-8.21533e-05 0.000209417 0)
(-0.000100506 0.000251881 -7.12669e-24)
(-0.000115783 0.000285635 3.42057e-24)
(-0.000127412 0.000310023 0)
(-0.000134756 0.000324418 0)
(-0.000137124 0.000328233 -2.73962e-24)
(-0.000133744 0.000320944 7.88919e-24)
(-0.000123782 0.000302066 -7.83983e-26)
(-0.000106344 0.000271202 2.32224e-24)
(-8.04796e-05 0.000228043 -5.77886e-26)
(-4.51922e-05 0.000172391 -7.74961e-24)
(5.46524e-07 0.000104174 7.30954e-24)
(5.77766e-05 2.34735e-05 1.11636e-25)
(0.000127519 -6.94467e-05 3.00739e-24)
(0.000210744 -0.000174106 1.1239e-23)
(0.000308323 -0.000289771 -1.53225e-23)
(0.00042098 -0.000415411 0)
(0.000549223 -0.000549651 0)
(0.000693272 -0.000690728 7.43206e-24)
(0.000852982 -0.000836452 -3.35965e-24)
(0.00102777 -0.000984173 2.96454e-24)
(0.00121645 -0.00113075 -2.4407e-24)
(0.00141735 -0.00127264 1.30037e-23)
(0.00162806 -0.00140606 -1.57123e-25)
(0.00184625 -0.00152691 -4.59464e-24)
(0.00206414 -0.00163244 1.85476e-25)
(0.00230042 -0.00171449 3.80361e-24)
(-1.47562e-05 3.68152e-05 -6.24944e-24)
(-4.1209e-05 0.000101831 8.65439e-24)
(-6.53546e-05 0.000160074 0)
(-8.6747e-05 0.000210828 -7.79821e-24)
(-0.000104876 0.000253379 3.62487e-24)
(-0.000119182 0.000287018 0)
(-0.000129054 0.000311056 3.33188e-24)
(-0.000133826 0.000324831 -3.12953e-24)
(-0.000132763 0.000327728 -2.83925e-24)
(-0.000125072 0.000319164 -2.65623e-24)
(-0.000109901 0.000298637 2.4795e-24)
(-8.63452e-05 0.00026572 -9.38825e-24)
(-5.34527e-05 0.000220082 8.72395e-24)
(-1.02365e-05 0.000161507 4.10921e-24)
(4.4309e-05 8.99153e-05 -7.47759e-24)
(0.000111185 5.39294e-06 1.1495e-25)
(0.000191354 -9.17781e-05 -6.28814e-24)
(0.000285705 -0.000201086 -5.60481e-24)
(0.000395007 -0.000321747 5.28058e-24)
(0.000519846 -0.00045266 4.8371e-24)
(0.000660558 -0.000592359 8.65641e-24)
(0.000817156 -0.000738965 -7.71689e-24)
(0.000989251 -0.000890148 0)
(0.00117595 -0.00104308 -5.92073e-24)
(0.00137573 -0.00119444 -2.70569e-24)
(0.00158657 -0.0013405 -1.96528e-24)
(0.00180566 -0.0014773 5.77159e-24)
(0.00203042 -0.00160057 -3.18492e-24)
(0.00225216 -0.00170775 -2.3033e-24)
(0.00249203 -0.00178949 2.3301e-24)
(-1.58224e-05 3.67538e-05 -2.13429e-24)
(-4.38415e-05 0.000101593 2.28439e-24)
(-6.89318e-05 0.00015961 -2.16875e-24)
(-9.06017e-05 0.00021006 -2.05414e-24)
(-0.0001083 0.000252201 3.75228e-24)
(-0.000121427 0.00028529 1.0854e-23)
(-0.000129327 0.000308607 -1.35564e-23)
(-0.000131289 0.000321456 3.12953e-24)
(-0.000126548 0.000323184 -2.92314e-24)
(-0.000114284 0.000313191 1.115e-23)
(-9.36223e-05 0.000290937 -1.04058e-23)
(-6.36459e-05 0.000255972 4.7921e-24)
(-2.33995e-05 0.000207944 -1.3474e-23)
(2.80945e-05 0.000146622 -8.29774e-24)
(9.18179e-05 7.19216e-05 1.54792e-23)
(0.00016873 -1.60657e-05 3.58355e-24)
(0.000259729 -0.000117039 -1.3239e-23)
(0.000365619 -0.000230455 1.20507e-23)
(0.000487053 -0.000355479 -5.51336e-24)
(0.000624468 -0.000490942 -5.0584e-24)
(0.000778018 -0.000635287 1.71953e-25)
(0.000947487 -0.000786523 0)
(0.00113222 -0.000942187 3.66478e-24)
(0.00133098 -0.00109928 0)
(0.00154192 -0.00125431 5.42566e-24)
(0.00176263 -0.00140341 2.43343e-25)
(0.0019899 -0.00154245 0)
(0.00222087 -0.00166699 2.0428e-25)
(0.00244596 -0.00177478 -2.7223e-24)
(0.00268883 -0.00185517 2.49488e-24)
(-1.6753e-05 3.63496e-05 0)
(-4.60839e-05 0.000100384 -2.28439e-24)
(-7.18733e-05 0.000157587 -6.65371e-24)
(-9.35808e-05 0.000207193 1.46677e-23)
(-0.000110612 0.000248431 -1.19055e-23)
(-0.000122318 0.000280535 -3.647e-24)
(-0.000128 0.000302756 1.04537e-23)
(-0.000126905 0.000314371 -3.34059e-24)
(-0.000118233 0.000314701 3.11821e-24)
(-0.000101129 0.000303115 -5.7672e-24)
(-7.4698e-05 0.000279052 5.36101e-24)
(-3.80059e-05 0.000242036 -5.01433e-24)
(9.90543e-06 0.0001917 -1.47672e-25)
(7.00041e-05 0.000127802 3.00815e-26)
(0.000143247 5.02553e-05 4.08112e-24)
(0.000230544 -4.08409e-05 0)
(0.00033273 -0.000145167 6.6554e-24)
(0.000450514 -0.000262146 -6.09783e-24)
(0.000584423 -0.000390894 0)
(0.000734735 -0.000530171 5.05643e-24)
(0.000901401 -0.000678335 2.73898e-26)
(0.00108396 -0.000833288 -4.2452e-24)
(0.00128148 -0.000992436 -1.12932e-23)
(0.00149235 -0.00115262 -6.76696e-24)
(0.00171436 -0.00131021 0)
(0.00194473 -0.00146119 -4.9345e-24)
(0.00217982 -0.00160132 0)
(0.00241652 -0.00172602 -3.58415e-24)
(0.00264435 -0.00183338 0)
(0.00288948 -0.0019114 -5.08919e-24)
(-1.75269e-05 3.56225e-05 0)
(-4.78754e-05 9.82559e-05 0)
(-7.40797e-05 0.000154085 0)
(-9.55492e-05 0.000202327 -8.6483e-24)
(-0.000111643 0.00024219 1.21727e-23)
(-0.000121664 0.000272886 -7.70246e-24)
(-0.000124865 0.000293646 3.67668e-24)
(-0.00012045 0.000303723 6.79018e-24)
(-0.000107577 0.000302419 0)
(-8.53601e-05 0.000289077 -6.03823e-24)
(-5.28773e-05 0.000263115 1.10662e-23)
(-9.17946e-06 0.000224043 -4.8879e-26)
(4.66959e-05 0.000171478 -2.37607e-26)
(0.000115707 0.000105171 -4.38131e-24)
(0.000198781 2.5036e-05 4.18307e-24)
(0.000296779 -6.88162e-05 0)
(0.000410464 -0.000176046 -1.4057e-23)
(0.000540442 -0.000296042 1.2818e-23)
(0.000687104 -0.000427868 -5.90071e-24)
(0.000850554 -0.00057022 0)
(0.00103053 -0.000721368 -4.7707e-24)
(0.00122631 -0.000879115 4.4049e-24)
(0.00143663 -0.00104074 3.80606e-24)
(0.00165952 -0.00120293 3.23834e-24)
(0.0018924 -0.00136197 0)
(0.00213207 -0.00151368 5.41455e-24)
(0.0023745 -0.00165377 0)
(0.0026163 -0.00177753 0)
(0.00284614 -0.00188347 3.66311e-24)
(0.00309267 -0.00195814 5.3666e-24)
(-1.81254e-05 3.45942e-05 0)
(-4.91616e-05 9.52681e-05 0)
(-7.54627e-05 0.000149195 0)
(-9.63864e-05 0.00019558 8.94226e-24)
(-0.000111243 0.000233616 8.42948e-24)
(-0.000119287 0.000262499 -1.19989e-23)
(-0.000119719 0.000281444 3.78404e-24)
(-0.0001117 0.000289691 -6.90962e-24)
(-9.43429e-05 0.00028652 6.5508e-24)
(-6.6729e-05 0.000271259 -1.23482e-23)
(-2.79087e-05 0.000243312 4.95125e-26)
(2.30834e-05 0.000202175 5.10191e-26)
(8.72135e-05 0.000147456 5.05213e-24)
(0.000165428 7.89036e-05 0)
(0.000258621 -3.56288e-06 -1.26461e-23)
(0.000367603 -9.98208e-05 7.87039e-24)
(0.000493054 -0.000209507 7.10206e-24)
(0.000635472 -0.000331973 -6.72942e-24)
(0.0007951 -0.000466232 6.15611e-24)
(0.000971852 -0.000610914 -5.46483e-24)
(0.00116523 -0.000764209 9.9948e-24)
(0.00137425 -0.000923825 -4.56448e-24)
(0.00159728 -0.0010869 0)
(0.00183197 -0.00125004 1.40782e-23)
(0.00207537 -0.0014094 -1.29378e-23)
(0.00232386 -0.00156073 -3.96148e-26)
(0.00257298 -0.00169966 -4.93614e-24)
(0.00281913 -0.00182143 -3.93163e-24)
(0.00305014 -0.00192501 -3.13091e-24)
(0.00329711 -0.0019954 0)
(-1.85321e-05 3.32882e-05 0)
(-4.9894e-05 9.14848e-05 0)
(-7.59424e-05 0.000143017 4.79361e-24)
(-9.59822e-05 0.000187084 -9.10103e-24)
(-0.000109274 0.000222867 -8.70586e-24)
(-0.000115021 0.000249554 1.22599e-23)
(-0.000112373 0.000266349 -3.91734e-24)
(-0.000100443 0.000272484 -7.23374e-24)
(-7.8302e-05 0.000267224 3.43767e-24)
(-4.49941e-05 0.000249889 0)
(4.56977e-07 0.000219873 1.17726e-23)
(5.90327e-05 0.000176664 -1.10114e-23)
(0.000131702 0.000119866 0)
(0.000219398 4.92309e-05 0)
(0.000322976 -3.53136e-05 -4.44583e-24)
(0.000443191 -0.000133629 -8.20848e-24)
(0.000580636 -0.000245326 7.55912e-24)
(0.000735687 -0.000369717 6.72683e-24)
(0.000908428 -0.000505765 -1.25071e-23)
(0.00109857 -0.000652034 -5.79315e-24)
(0.00130537 -0.000806639 5.25845e-24)
(0.00152753 -0.000967195 -4.60559e-24)
(0.00176305 -0.00113073 4.24785e-24)
(0.00200921 -0.00129375 0)
(0.00226264 -0.00145234 2.67685e-26)
(0.00251931 -0.00160217 1.7394e-23)
(0.00277437 -0.00173888 -5.14808e-24)
(0.00302396 -0.00185765 0)
(0.0032552 -0.00195801 7.43751e-24)
(0.00350153 -0.00202328 -5.98961e-24)
(-1.87328e-05 3.17294e-05 0)
(-5.00301e-05 8.69751e-05 -1.06427e-23)
(-7.54473e-05 0.00013566 9.94611e-24)
(-9.42363e-05 0.000176981 4.8326e-24)
(-0.000105608 0.000210116 -9.01352e-24)
(-0.000108711 0.000234249 -4.15496e-24)
(-0.000102648 0.00024858 1.98311e-23)
(-8.64784e-05 0.00025234 -1.86916e-23)
(-5.92338e-05 0.000244784 1.0552e-23)
(-1.99207e-05 0.00022523 6.6192e-24)
(3.24637e-05 0.000193068 6.17179e-24)
(9.89162e-05 0.000147784 0)
(0.000180407 8.89859e-05 -1.04903e-23)
(0.000277847 1.64325e-05 9.78016e-24)
(0.000392058 -6.99364e-05 1.34363e-23)
(0.000523727 -0.000169962 -8.60973e-24)
(0.000673353 -0.000283226 2.31483e-25)
(0.000841178 -0.000408999 -7.00623e-24)
(0.00102711 -0.000546193 6.29049e-24)
(0.00123065 -0.000693311 5.79053e-24)
(0.00145078 -0.000848393 1.72027e-25)
(0.00168589 -0.00100897 0)
(0.00193357 -0.00117196 8.81101e-24)
(0.00219073 -0.00133382 0)
(0.00245357 -0.00149057 6.95485e-24)
(0.00271765 -0.00163785 2.2565e-25)
(0.00297773 -0.00177132 5.03279e-24)
(0.00322975 -0.00188615 -3.12886e-25)
(0.00346019 -0.00198249 -1.49669e-23)
(0.00370467 -0.00204186 9.26906e-24)
(-1.87151e-05 2.99433e-05 0)
(-4.95322e-05 8.181e-05 -1.09886e-23)
(-7.39137e-05 0.000127237 2.59712e-23)
(-9.10582e-05 0.000165423 -4.86243e-24)
(-0.000100126 0.000195548 0)
(-0.000100214 0.0002168 1.33064e-25)
(-9.03741e-05 0.000228381 1.63756e-23)
(-6.96161e-05 0.000229522 -1.54095e-23)
(-3.69289e-05 0.000219481 -7.0555e-24)
(8.71605e-06 0.000197577 6.84725e-24)
(6.83469e-05 0.000163204 -2.50251e-23)
(0.000142974 0.000115853 2.92345e-23)
(0.000233564 5.51395e-05 -2.16595e-23)
(0.000341006 -1.91646e-05 4.97581e-24)
(0.000466077 -0.000107102 -9.25789e-24)
(0.000609393 -0.000208491 8.51586e-24)
(0.000771347 -0.000322878 8.16545e-24)
(0.000952035 -0.000449492 -7.21857e-24)
(0.00115118 -0.000587194 6.4876e-24)
(0.00136804 -0.000734428 -6.01589e-24)
(0.00160134 -0.000889168 1.34803e-25)
(0.00184907 -0.00104885 0)
(0.00210846 -0.00121032 -8.80653e-24)
(0.00237602 -0.00137001 2.78024e-25)
(0.00264751 -0.00152388 2.67009e-25)
(0.00291809 -0.0016676 6.26453e-24)
(0.00318216 -0.00179687 -5.55502e-24)
(0.0034355 -0.00190692 9.45216e-24)
(0.00366401 -0.00199854 8.0876e-24)
(0.00390534 -0.00205128 0)
(-1.84684e-05 2.79554e-05 1.10317e-23)
(-4.83675e-05 7.60617e-05 -2.8829e-24)
(-7.12847e-05 0.000117862 0)
(-8.63664e-05 0.000152565 -5.00035e-24)
(-9.27223e-05 0.000179356 0)
(-8.93996e-05 0.000197431 -4.43504e-24)
(-7.53971e-05 0.000206005 0)
(-4.96781e-05 0.00020431 -1.17885e-23)
(-1.11899e-05 0.000191617 -7.23404e-24)
(4.11294e-05 0.000167253 2.08855e-23)
(0.000108332 0.00013062 6.35614e-24)
(0.000191437 8.12212e-05 -1.78832e-23)
(0.000291403 1.86885e-05 6.10146e-26)
(0.000409094 -5.7191e-05 2.57485e-23)
(0.000545237 -0.000146437 -6.21326e-26)
(0.000700365 -0.000248838 -1.78056e-23)
(0.000874752 -0.000363904 -8.01353e-24)
(0.00106834 -0.000490821 0)
(0.00128065 -0.000628399 6.7439e-24)
(0.00151069 -0.000775026 6.19654e-24)
(0.00175686 -0.000928611 -1.14884e-23)
(0.0020168 -0.0010865 0)
(0.00228733 -0.00124552 -9.37361e-24)
(0.00256455 -0.00140205 -8.11545e-24)
(0.00284381 -0.00155207 -7.14955e-24)
(0.00311987 -0.00169126 -5.99307e-24)
(0.0033868 -0.00181546 5.7485e-24)
(0.00364022 -0.00191994 -9.44781e-24)
(0.00386562 -0.00200623 3.07154e-25)
(0.00410244 -0.0020517 6.79725e-24)
(-1.79837e-05 2.57911e-05 0)
(-4.65071e-05 6.98021e-05 -8.8356e-26)
(-6.75101e-05 0.000107652 -1.6684e-23)
(-8.00877e-05 0.000138565 5.17428e-24)
(-8.33007e-05 0.000161736 0)
(-7.6147e-05 0.000176376 2.32134e-23)
(-5.75731e-05 0.000181716 -3.92318e-23)
(-2.64996e-05 0.000177 8.19132e-24)
(1.8167e-05 0.000161515 -1.52147e-23)
(7.75189e-05 0.000134603 7.25421e-24)
(0.000152628 9.56817e-05 0)
(0.000244519 4.42738e-05 0)
(0.000354139 -1.99701e-05 -5.80865e-24)
(0.000482319 -9.7239e-05 5.38363e-24)
(0.000629726 -0.000187525 0)
(0.0007968 -0.000290582 8.94649e-24)
(0.000983688 -0.000405882 0)
(0.00119016 -0.000532566 1.5429e-23)
(0.00141551 -0.000669395 -7.0777e-24)
(0.00165849 -0.000814701 0)
(0.00191718 -0.000966336 -6.09083e-24)
(0.00218879 -0.00112158 0)
(0.00246977 -0.00127723 1.90141e-23)
(0.00275582 -0.00142967 8.61993e-24)
(0.00304183 -0.0015749 7.64567e-24)
(0.00332222 -0.00170868 0)
(0.00359078 -0.001827 2.59275e-25)
(0.00384294 -0.00192526 5.14268e-24)
(0.0040641 -0.00200571 -8.38774e-24)
(0.00429492 -0.00204343 -6.79439e-24)
(-1.72529e-05 2.34748e-05 1.17243e-23)
(-4.39257e-05 6.31017e-05 -3.14887e-24)
(-6.25449e-05 9.67231e-05 -1.66554e-25)
(-7.21564e-05 0.00012358 1.60642e-23)
(-7.17736e-05 0.000142886 -1.53231e-23)
(-6.0346e-05 0.000153873 -4.70489e-24)
(-3.67719e-05 0.000155787 -1.26587e-25)
(7.02078e-08 0.000147898 -1.17669e-25)
(5.13102e-05 0.000129511 0)
(0.000118068 9.99909e-05 -1.46049e-23)
(0.000201429 5.87781e-05 2.03657e-23)
(0.000302419 5.41902e-06 -1.27174e-23)
(0.000421968 -6.04098e-05 1.1774e-23)
(0.000560867 -0.000138868 -5.38179e-24)
(0.00071971 -0.000229914 0)
(0.000898837 -0.000333266 9.44625e-24)
(0.00109825 -0.000448352 -1.53393e-25)
(0.00131753 -0.00057427 -7.71512e-24)
(0.00155574 -0.000709731 7.1852e-24)
(0.00181135 -0.000853019 -6.64787e-24)
(0.00208207 -0.00100193 2.40139e-23)
(0.00236471 -0.00115369 -2.17515e-23)
(0.00265536 -0.00130512 9.89858e-24)
(0.00294925 -0.00145258 -3.49383e-23)
(0.00324091 -0.00159216 -1.51888e-23)
(0.00352439 -0.00171973 3.28748e-25)
(0.00379325 -0.00183145 1.23185e-23)
(0.00404272 -0.00192293 1.53901e-23)
(0.00425858 -0.00199717 -4.5635e-24)
(0.00448169 -0.00202693 0)
(-1.62691e-05 2.103e-05 -1.20727e-23)
(-4.06004e-05 5.60293e-05 -1.7821e-25)
(-5.63491e-05 8.51871e-05 5.79028e-24)
(-6.25135e-05 0.000107767 5.44265e-24)
(-5.80627e-05 0.000123005 -2.61638e-23)
(-4.18978e-05 0.000130159 3.92762e-23)
(-1.28749e-05 0.000128497 -2.76363e-23)
(3.01679e-05 0.000117317 4.3133e-23)
(8.83922e-05 9.59529e-05 -1.61692e-23)
(0.00016294 6.37949e-05 -2.26324e-23)
(0.000254907 2.03145e-05 1.40877e-23)
(0.000365313 -3.49133e-05 7.24042e-26)
(0.000495064 -0.000102179 6.16124e-24)
(0.000644897 -0.000181609 0)
(0.000815329 -0.000273123 1.03292e-23)
(0.00100658 -0.000376398 -9.3505e-24)
(0.00121849 -0.00049082 1.76295e-23)
(0.00145045 -0.00061544 -7.99417e-24)
(0.00170126 -0.000748926 -7.37557e-24)
(0.0019691 -0.000889515 -6.76677e-24)
(0.00225127 -0.00103494 -1.81579e-23)
(0.00254422 -0.00118244 2.22793e-23)
(0.00284362 -0.00132882 9.89364e-24)
(0.00314429 -0.0014705 -5.33777e-25)
(0.00344039 -0.00160365 -2.60744e-25)
(0.00372562 -0.00172427 0)
(0.00399341 -0.00182876 3.30492e-25)
(0.00423873 -0.00191303 -2.11158e-23)
(0.00444828 -0.00198082 4.29465e-24)
(0.00466174 -0.00200277 -7.59651e-24)
(-1.50257e-05 1.84792e-05 2.2773e-26)
(-3.65109e-05 4.86511e-05 1.90997e-23)
(-4.88863e-05 7.31546e-05 0)
(-5.1106e-05 9.12801e-05 1.1404e-23)
(-4.20964e-05 0.000102291 2.14304e-23)
(-2.07144e-05 0.000105471 -2.02369e-23)
(1.42236e-05 0.000100122 -1.87615e-23)