/*--------------------------------*- C++ -*----------------------------------*\
| =========                 |                                                 |
| \\      /  F ield         | foam-extend: Open Source CFD                    |
|  \\    /   O peration     | Version:     4.0                                |
|   \\  /    A nd           | Web:         http://www.foam-extend.org         |
|    \\/     M anipulation  |                                                 |
\*---------------------------------------------------------------------------*/
FoamFile
{
    version     2.0;
    format      ascii;
    class       volScalarField;
    location    "50";
    object      p;
}
// * * * * * * * * * * * * * * * * * * * * * * * * * * * * * * * * * * * * * //

dimensions      [0 2 -2 0 0 0 0];

internalField   nonuniform List<scalar> 
36000
(
-7.50027e-06
-7.54943e-06
-7.60125e-06
-7.6488e-06
-7.69276e-06
-7.73397e-06
-7.77255e-06
-7.80843e-06
-7.84162e-06
-7.87218e-06
-7.90017e-06
-7.92569e-06
-7.94882e-06
-7.9696e-06
-7.98801e-06
-8.00393e-06
-8.01713e-06
-8.02722e-06
-8.03364e-06
-8.03557e-06
-8.03195e-06
-8.02135e-06
-8.00202e-06
-7.97178e-06
-7.92803e-06
-7.86771e-06
-7.78736e-06
-7.68308e-06
-7.5499e-06
-7.38165e-06
-7.5167e-06
-7.56517e-06
-7.61625e-06
-7.66316e-06
-7.70653e-06
-7.74721e-06
-7.78531e-06
-7.82075e-06
-7.85356e-06
-7.88377e-06
-7.91148e-06
-7.93676e-06
-7.9597e-06
-7.98034e-06
-7.99866e-06
-8.01454e-06
-8.02777e-06
-8.03796e-06
-8.04455e-06
-8.04674e-06
-8.04345e-06
-8.03329e-06
-8.01449e-06
-7.98491e-06
-7.94195e-06
-7.88255e-06
-7.80329e-06
-7.70038e-06
-7.56881e-06
-7.40039e-06
-7.54934e-06
-7.59642e-06
-7.64607e-06
-7.69169e-06
-7.73391e-06
-7.77353e-06
-7.81066e-06
-7.84524e-06
-7.87727e-06
-7.90681e-06
-7.93394e-06
-7.95873e-06
-7.98129e-06
-8.00164e-06
-8.01978e-06
-8.0356e-06
-8.04888e-06
-8.05926e-06
-8.06617e-06
-8.06884e-06
-8.0662e-06
-8.05688e-06
-8.03915e-06
-8.01086e-06
-7.96944e-06
-7.91185e-06
-7.8347e-06
-7.7344e-06
-7.6057e-06
-7.43701e-06
-7.59755e-06
-7.64259e-06
-7.69014e-06
-7.73386e-06
-7.77437e-06
-7.81244e-06
-7.84814e-06
-7.88144e-06
-7.91233e-06
-7.94086e-06
-7.96711e-06
-7.99118e-06
-8.01315e-06
-8.03306e-06
-8.05091e-06
-8.0666e-06
-8.07993e-06
-8.09055e-06
-8.09791e-06
-8.10125e-06
-8.09955e-06
-8.09144e-06
-8.07522e-06
-8.04879e-06
-8.00959e-06
-7.95461e-06
-7.88056e-06
-7.78405e-06
-7.65928e-06
-7.48986e-06
-7.66041e-06
-7.70282e-06
-7.74764e-06
-7.78891e-06
-7.82721e-06
-7.86324e-06
-7.89709e-06
-7.9287e-06
-7.95808e-06
-7.98528e-06
-8.01038e-06
-8.03347e-06
-8.05464e-06
-8.07393e-06
-8.09136e-06
-8.10684e-06
-8.12019e-06
-8.13106e-06
-8.13895e-06
-8.14311e-06
-8.14256e-06
-8.13595e-06
-8.12163e-06
-8.09753e-06
-8.06113e-06
-8.00946e-06
-7.9394e-06
-7.84762e-06
-7.72767e-06
-7.55696e-06
-7.73676e-06
-7.77601e-06
-7.81755e-06
-7.85588e-06
-7.8915e-06
-7.92506e-06
-7.95665e-06
-7.9862e-06
-8.01373e-06
-8.03928e-06
-8.06294e-06
-8.08479e-06
-8.10493e-06
-8.12343e-06
-8.14028e-06
-8.15544e-06
-8.16872e-06
-8.17982e-06
-8.18825e-06
-8.19332e-06
-8.19404e-06
-8.18915e-06
-8.177e-06
-8.15559e-06
-8.12246e-06
-8.07473e-06
-8.00926e-06
-7.92283e-06
-7.80873e-06
-7.63574e-06
-7.82523e-06
-7.86089e-06
-7.89867e-06
-7.93361e-06
-7.96614e-06
-7.99686e-06
-8.02582e-06
-8.05297e-06
-8.07832e-06
-8.10192e-06
-8.12385e-06
-8.14421e-06
-8.1631e-06
-8.18057e-06
-8.19667e-06
-8.21134e-06
-8.22444e-06
-8.23568e-06
-8.24462e-06
-8.25059e-06
-8.25264e-06
-8.24955e-06
-8.23975e-06
-8.22131e-06
-8.1918e-06
-8.14833e-06
-8.08779e-06
-8.00723e-06
-7.90011e-06
-7.72306e-06
-7.92433e-06
-7.95602e-06
-7.98966e-06
-8.02084e-06
-8.04995e-06
-8.07748e-06
-8.10349e-06
-8.12793e-06
-8.1508e-06
-8.17217e-06
-8.1921e-06
-8.2107e-06
-8.22807e-06
-8.2443e-06
-8.25942e-06
-8.27342e-06
-8.28617e-06
-8.29742e-06
-8.30675e-06
-8.31354e-06
-8.31687e-06
-8.31561e-06
-8.30824e-06
-8.29286e-06
-8.26707e-06
-8.22795e-06
-8.17258e-06
-8.09824e-06
-7.99934e-06
-7.81507e-06
-8.03243e-06
-8.05988e-06
-8.08909e-06
-8.11623e-06
-8.14163e-06
-8.1657e-06
-8.18848e-06
-8.20994e-06
-8.23006e-06
-8.24892e-06
-8.26659e-06
-8.28317e-06
-8.29878e-06
-8.3135e-06
-8.32741e-06
-8.34051e-06
-8.3527e-06
-8.36375e-06
-8.37329e-06
-8.38073e-06
-8.38524e-06
-8.38571e-06
-8.38067e-06
-8.36824e-06
-8.34609e-06
-8.31134e-06
-8.26116e-06
-8.19319e-06
-8.10465e-06
-7.90593e-06
-8.14787e-06
-8.17092e-06
-8.19549e-06
-8.2184e-06
-8.23988e-06
-8.26028e-06
-8.27961e-06
-8.29784e-06
-8.31498e-06
-8.33109e-06
-8.34623e-06
-8.36054e-06
-8.37411e-06
-8.38707e-06
-8.39951e-06
-8.41144e-06
-8.4228e-06
-8.4334e-06
-8.44292e-06
-8.45078e-06
-8.45622e-06
-8.45815e-06
-8.45518e-06
-8.44551e-06
-8.42688e-06
-8.39636e-06
-8.35102e-06
-8.28897e-06
-8.2161e-06
-7.98769e-06
-8.26902e-06
-8.28758e-06
-8.30743e-06
-8.32598e-06
-8.34341e-06
-8.35998e-06
-8.37569e-06
-8.39051e-06
-8.40446e-06
-8.41758e-06
-8.42996e-06
-8.44173e-06
-8.45301e-06
-8.46394e-06
-8.47462e-06
-8.4851e-06
-8.49533e-06
-8.50519e-06
-8.51435e-06
-8.52228e-06
-8.52827e-06
-8.53134e-06
-8.53015e-06
-8.52295e-06
-8.50756e-06
-8.48106e-06
-8.44015e-06
-8.38225e-06
-8.33136e-06
-8.0776e-06
-8.39432e-06
-8.40841e-06
-8.42352e-06
-8.43768e-06
-8.45099e-06
-8.46363e-06
-8.4756e-06
-8.48686e-06
-8.49744e-06
-8.50738e-06
-8.51678e-06
-8.52577e-06
-8.5345e-06
-8.54313e-06
-8.55176e-06
-8.56045e-06
-8.56924e-06
-8.57796e-06
-8.58633e-06
-8.59392e-06
-8.60009e-06
-8.60392e-06
-8.60412e-06
-8.59902e-06
-8.58646e-06
-8.56362e-06
-8.5276e-06
-8.4754e-06
-8.41998e-06
-8.18551e-06
-8.52233e-06
-8.53205e-06
-8.5425e-06
-8.55229e-06
-8.56148e-06
-8.57015e-06
-8.5783e-06
-8.5859e-06
-8.59298e-06
-8.59956e-06
-8.60578e-06
-8.61178e-06
-8.61773e-06
-8.62378e-06
-8.63004e-06
-8.63661e-06
-8.64352e-06
-8.65066e-06
-8.65783e-06
-8.66466e-06
-8.67059e-06
-8.67474e-06
-8.6759e-06
-8.67244e-06
-8.66223e-06
-8.64254e-06
-8.61084e-06
-8.56421e-06
-8.50814e-06
-8.28265e-06
-8.65178e-06
-8.6573e-06
-8.66323e-06
-8.66877e-06
-8.67389e-06
-8.67861e-06
-8.6829e-06
-8.68676e-06
-8.69021e-06
-8.69332e-06
-8.69623e-06
-8.69907e-06
-8.70199e-06
-8.70514e-06
-8.70867e-06
-8.71272e-06
-8.71733e-06
-8.72248e-06
-8.72804e-06
-8.7337e-06
-8.73894e-06
-8.74294e-06
-8.74454e-06
-8.74219e-06
-8.73379e-06
-8.71665e-06
-8.68843e-06
-8.64621e-06
-8.59261e-06
-8.36756e-06
-8.78157e-06
-8.78311e-06
-8.78475e-06
-8.78622e-06
-8.78741e-06
-8.78826e-06
-8.78874e-06
-8.78883e-06
-8.78859e-06
-8.78814e-06
-8.78758e-06
-8.78702e-06
-8.78659e-06
-8.78651e-06
-8.78696e-06
-8.78812e-06
-8.79007e-06
-8.79287e-06
-8.79642e-06
-8.80047e-06
-8.80454e-06
-8.80787e-06
-8.80938e-06
-8.80756e-06
-8.80038e-06
-8.78516e-06
-8.75964e-06
-8.72087e-06
-8.67052e-06
-8.4417e-06
-8.91076e-06
-8.9086e-06
-8.90621e-06
-8.9038e-06
-8.90121e-06
-8.89833e-06
-8.89509e-06
-8.89149e-06
-8.88757e-06
-8.88342e-06
-8.87914e-06
-8.87491e-06
-8.87091e-06
-8.86737e-06
-8.8645e-06
-8.86248e-06
-8.86146e-06
-8.86153e-06
-8.86264e-06
-8.8646e-06
-8.86701e-06
-8.86916e-06
-8.87003e-06
-8.86818e-06
-8.86162e-06
-8.84765e-06
-8.82414e-06
-8.78798e-06
-8.74081e-06
-8.50557e-06
-9.03871e-06
-9.03316e-06
-9.02704e-06
-9.02099e-06
-9.01479e-06
-9.00826e-06
-9.00135e-06
-8.99405e-06
-8.98641e-06
-8.97852e-06
-8.97049e-06
-8.96252e-06
-8.95481e-06
-8.94762e-06
-8.94118e-06
-8.93568e-06
-8.93134e-06
-8.92829e-06
-8.92656e-06
-8.926e-06
-8.92627e-06
-8.92674e-06
-8.92645e-06
-8.924e-06
-8.91744e-06
-8.90409e-06
-8.88189e-06
-8.84756e-06
-8.80322e-06
-8.5593e-06
-9.16503e-06
-9.15643e-06
-9.14691e-06
-9.13747e-06
-9.12787e-06
-9.11787e-06
-9.1074e-06
-9.09647e-06
-9.08513e-06
-9.07347e-06
-9.06163e-06
-9.04981e-06
-9.03825e-06
-9.02721e-06
-9.01694e-06
-9.00769e-06
-8.99972e-06
-8.99323e-06
-8.98828e-06
-8.98479e-06
-8.98249e-06
-8.98081e-06
-8.97885e-06
-8.97526e-06
-8.96811e-06
-8.95477e-06
-8.93319e-06
-8.89991e-06
-8.85791e-06
-8.60324e-06
-9.28958e-06
-9.27824e-06
-9.26564e-06
-9.2531e-06
-9.24031e-06
-9.22701e-06
-9.21312e-06
-9.19864e-06
-9.18364e-06
-9.16822e-06
-9.15252e-06
-9.13678e-06
-9.12125e-06
-9.1062e-06
-9.09189e-06
-9.07866e-06
-9.06681e-06
-9.05657e-06
-9.04807e-06
-9.0413e-06
-9.03604e-06
-9.03178e-06
-9.02769e-06
-9.02245e-06
-9.01418e-06
-9.00023e-06
-8.97859e-06
-8.94557e-06
-8.90539e-06
-8.63792e-06
-9.4124e-06
-9.39866e-06
-9.38329e-06
-9.3679e-06
-9.35215e-06
-9.33572e-06
-9.31854e-06
-9.30062e-06
-9.28202e-06
-9.26286e-06
-9.2433e-06
-9.2236e-06
-9.204e-06
-9.18479e-06
-9.16631e-06
-9.14892e-06
-9.13297e-06
-9.11874e-06
-9.10642e-06
-9.09606e-06
-9.0875e-06
-9.08028e-06
-9.07364e-06
-9.06629e-06
-9.05638e-06
-9.04121e-06
-9.01884e-06
-8.98531e-06
-8.94636e-06
-8.66408e-06
-9.53377e-06
-9.51791e-06
-9.50007e-06
-9.48208e-06
-9.46357e-06
-9.44419e-06
-9.42386e-06
-9.4026e-06
-9.38048e-06
-9.35762e-06
-9.33422e-06
-9.31052e-06
-9.28679e-06
-9.26334e-06
-9.24058e-06
-9.2189e-06
-9.19869e-06
-9.18028e-06
-9.16392e-06
-9.14972e-06
-9.13757e-06
-9.12708e-06
-9.11752e-06
-9.10764e-06
-9.09557e-06
-9.07861e-06
-9.05483e-06
-9.01998e-06
-8.98164e-06
-8.6826e-06
-9.65413e-06
-9.6364e-06
-9.61635e-06
-9.59598e-06
-9.5749e-06
-9.55273e-06
-9.52939e-06
-9.50489e-06
-9.47933e-06
-9.45283e-06
-9.42562e-06
-9.39791e-06
-9.37002e-06
-9.3423e-06
-9.3152e-06
-9.28914e-06
-9.26455e-06
-9.24184e-06
-9.22128e-06
-9.20304e-06
-9.18708e-06
-9.17305e-06
-9.16024e-06
-9.14742e-06
-9.13271e-06
-9.11337e-06
-9.08748e-06
-9.05045e-06
-9.01203e-06
-8.69449e-06
-9.77407e-06
-9.75469e-06
-9.73264e-06
-9.71008e-06
-9.68659e-06
-9.66177e-06
-9.63553e-06
-9.6079e-06
-9.57897e-06
-9.54891e-06
-9.51791e-06
-9.48622e-06
-9.45418e-06
-9.4222e-06
-9.39073e-06
-9.36025e-06
-9.33123e-06
-9.30412e-06
-9.27926e-06
-9.25686e-06
-9.23691e-06
-9.21911e-06
-9.20275e-06
-9.18659e-06
-9.16875e-06
-9.14641e-06
-9.11767e-06
-9.0775e-06
-9.03822e-06
-8.70084e-06
-9.89429e-06
-9.87342e-06
-9.84953e-06
-9.82492e-06
-9.79915e-06
-9.77179e-06
-9.74276e-06
-9.71208e-06
-9.67989e-06
-9.64632e-06
-9.61159e-06
-9.57596e-06
-9.53982e-06
-9.50359e-06
-9.46778e-06
-9.43288e-06
-9.39942e-06
-9.36788e-06
-9.33866e-06
-9.31201e-06
-9.28794e-06
-9.26616e-06
-9.24594e-06
-9.22607e-06
-9.20461e-06
-9.17864e-06
-9.14622e-06
-9.10181e-06
-9.06058e-06
-8.70277e-06
-1.00156e-05
-9.99331e-06
-9.96769e-06
-9.94114e-06
-9.91318e-06
-9.88337e-06
-9.85162e-06
-9.81799e-06
-9.78259e-06
-9.74558e-06
-9.70717e-06
-9.66767e-06
-9.62749e-06
-9.58708e-06
-9.54696e-06
-9.50769e-06
-9.46982e-06
-9.43387e-06
-9.40029e-06
-9.36932e-06
-9.34099e-06
-9.31503e-06
-9.29069e-06
-9.26671e-06
-9.2411e-06
-9.21081e-06
-9.17382e-06
-9.12403e-06
-9.07916e-06
-8.70165e-06
-1.01387e-05
-1.01151e-05
-1.00878e-05
-1.00594e-05
-1.00293e-05
-9.99707e-06
-9.96267e-06
-9.92615e-06
-9.88761e-06
-9.84721e-06
-9.8052e-06
-9.76192e-06
-9.71777e-06
-9.67326e-06
-9.62892e-06
-9.58534e-06
-9.54313e-06
-9.50282e-06
-9.46485e-06
-9.4295e-06
-9.39682e-06
-9.36648e-06
-9.33774e-06
-9.30926e-06
-9.27891e-06
-9.24354e-06
-9.20096e-06
-9.14479e-06
-9.09392e-06
-8.69989e-06
-1.02645e-05
-1.02396e-05
-1.02106e-05
-1.01803e-05
-1.01481e-05
-1.01135e-05
-1.00765e-05
-1.00371e-05
-9.99548e-06
-9.95176e-06
-9.90623e-06
-9.85923e-06
-9.81122e-06
-9.76269e-06
-9.71423e-06
-9.66646e-06
-9.61997e-06
-9.57532e-06
-9.53298e-06
-9.49322e-06
-9.45606e-06
-9.42117e-06
-9.38773e-06
-9.35429e-06
-9.3186e-06
-9.27729e-06
-9.22789e-06
-9.16436e-06
-9.10335e-06
-8.69931e-06
-1.03938e-05
-1.03675e-05
-1.03368e-05
-1.03045e-05
-1.02702e-05
-1.02332e-05
-1.01936e-05
-1.01514e-05
-1.01067e-05
-1.00597e-05
-1.00107e-05
-9.96013e-06
-9.90834e-06
-9.85591e-06
-9.80345e-06
-9.75157e-06
-9.70087e-06
-9.65194e-06
-9.60523e-06
-9.56101e-06
-9.51926e-06
-9.4796e-06
-9.44113e-06
-9.40227e-06
-9.36059e-06
-9.3125e-06
-9.25494e-06
-9.18191e-06
-9.09961e-06
-8.69094e-06
-1.05273e-05
-1.04994e-05
-1.0467e-05
-1.04327e-05
-1.03962e-05
-1.03568e-05
-1.03146e-05
-1.02695e-05
-1.02218e-05
-1.01716e-05
-1.01192e-05
-1.00651e-05
-1.00096e-05
-9.95339e-06
-9.89702e-06
-9.84111e-06
-9.78628e-06
-9.7331e-06
-9.68202e-06
-9.63327e-06
-9.5868e-06
-9.54213e-06
-9.49826e-06
-9.45352e-06
-9.40529e-06
-9.34981e-06
-9.28296e-06
-9.19708e-06
-9.07186e-06
-8.66532e-06
-1.06656e-05
-1.06361e-05
-1.06016e-05
-1.05653e-05
-1.05265e-05
-1.04847e-05
-1.04398e-05
-1.03919e-05
-1.03411e-05
-1.02878e-05
-1.02321e-05
-1.01745e-05
-1.01154e-05
-1.00555e-05
-9.99529e-06
-9.93543e-06
-9.87654e-06
-9.81915e-06
-9.76367e-06
-9.71029e-06
-9.6589e-06
-9.60893e-06
-9.55929e-06
-9.50822e-06
-9.45303e-06
-9.39027e-06
-9.31447e-06
-9.2174e-06
-9.04734e-06
-8.74526e-06
-1.08092e-05
-1.07779e-05
-1.07413e-05
-1.07028e-05
-1.06616e-05
-1.06172e-05
-1.05696e-05
-1.05189e-05
-1.04651e-05
-1.04086e-05
-1.03496e-05
-1.02886e-05
-1.0226e-05
-1.01625e-05
-1.00985e-05
-1.00348e-05
-9.97188e-06
-9.91027e-06
-9.85033e-06
-9.79218e-06
-9.73562e-06
-9.67999e-06
-9.62413e-06
-9.56623e-06
-9.50378e-06
-9.43406e-06
-9.3518e-06
-9.25584e-06
-9.10785e-06
-9.27411e-06
-1.09586e-05
-1.09253e-05
-1.08864e-05
-1.08454e-05
-1.08017e-05
-1.07548e-05
-1.07044e-05
-1.06507e-05
-1.05939e-05
-1.05343e-05
-1.04721e-05
-1.04077e-05
-1.03417e-05
-1.02746e-05
-1.0207e-05
-1.01394e-05
-1.00724e-05
-1.00065e-05
-9.94201e-06
-9.87889e-06
-9.81684e-06
-9.7551e-06
-9.69241e-06
-9.62685e-06
-9.55615e-06
-9.47773e-06
-9.38681e-06
-9.2874e-06
-9.14976e-06
-9.36633e-06
-1.11139e-05
-1.10784e-05
-1.1037e-05
-1.09935e-05
-1.09472e-05
-1.08975e-05
-1.08442e-05
-1.07876e-05
-1.07278e-05
-1.0665e-05
-1.05996e-05
-1.05319e-05
-1.04625e-05
-1.03919e-05
-1.03206e-05
-1.02492e-05
-1.01782e-05
-1.01079e-05
-1.00386e-05
-9.97023e-06
-9.90228e-06
-9.83388e-06
-9.7636e-06
-9.68951e-06
-9.60916e-06
-9.52008e-06
-9.41754e-06
-9.30635e-06
-9.15225e-06
-9.30539e-06
-1.12753e-05
-1.12374e-05
-1.11933e-05
-1.11471e-05
-1.10981e-05
-1.10455e-05
-1.09893e-05
-1.09297e-05
-1.08668e-05
-1.08009e-05
-1.07323e-05
-1.06613e-05
-1.05885e-05
-1.05144e-05
-1.04394e-05
-1.03641e-05
-1.0289e-05
-1.02142e-05
-1.01399e-05
-1.00659e-05
-9.99157e-06
-9.91585e-06
-9.83716e-06
-9.75349e-06
-9.66213e-06
-9.56049e-06
-9.44395e-06
-9.31601e-06
-9.13979e-06
-9.23554e-06
-1.14429e-05
-1.14024e-05
-1.13554e-05
-1.13063e-05
-1.12543e-05
-1.11988e-05
-1.11396e-05
-1.1077e-05
-1.1011e-05
-1.09419e-05
-1.087e-05
-1.07958e-05
-1.07196e-05
-1.0642e-05
-1.05633e-05
-1.04841e-05
-1.04046e-05
-1.03251e-05
-1.02455e-05
-1.01654e-05
-1.00842e-05
-1.00004e-05
-9.91249e-06
-9.8181e-06
-9.71446e-06
-9.59874e-06
-9.46614e-06
-9.31917e-06
-9.12107e-06
-9.16551e-06
-1.16164e-05
-1.15731e-05
-1.1523e-05
-1.14708e-05
-1.14158e-05
-1.13573e-05
-1.1295e-05
-1.12293e-05
-1.11601e-05
-1.10879e-05
-1.10128e-05
-1.09353e-05
-1.08557e-05
-1.07745e-05
-1.0692e-05
-1.06087e-05
-1.05247e-05
-1.04402e-05
-1.03549e-05
-1.02683e-05
-1.01794e-05
-1.00869e-05
-9.9888e-06
-9.88263e-06
-9.76546e-06
-9.63445e-06
-9.48448e-06
-9.31743e-06
-9.09828e-06
-9.09477e-06
-1.17955e-05
-1.17492e-05
-1.16959e-05
-1.16405e-05
-1.15824e-05
-1.15207e-05
-1.14553e-05
-1.13864e-05
-1.13141e-05
-1.12386e-05
-1.11603e-05
-1.10794e-05
-1.09964e-05
-1.09115e-05
-1.08252e-05
-1.07376e-05
-1.0649e-05
-1.05591e-05
-1.04676e-05
-1.03739e-05
-1.02767e-05
-1.01746e-05
-1.00653e-05
-9.94632e-06
-9.81459e-06
-9.66711e-06
-9.49898e-06
-9.31151e-06
-9.07233e-06
-9.02417e-06
-1.19799e-05
-1.19305e-05
-1.18737e-05
-1.18151e-05
-1.17538e-05
-1.16889e-05
-1.16203e-05
-1.15481e-05
-1.14726e-05
-1.13939e-05
-1.13123e-05
-1.1228e-05
-1.11415e-05
-1.10529e-05
-1.09625e-05
-1.08704e-05
-1.07767e-05
-1.0681e-05
-1.05829e-05
-1.04814e-05
-1.03753e-05
-1.02626e-05
-1.01413e-05
-1.00084e-05
-9.86117e-06
-9.69639e-06
-9.50958e-06
-9.30173e-06
-9.04368e-06
-8.95433e-06
-1.21691e-05
-1.21164e-05
-1.20561e-05
-1.19941e-05
-1.19294e-05
-1.18612e-05
-1.17894e-05
-1.1714e-05
-1.16352e-05
-1.15533e-05
-1.14683e-05
-1.13806e-05
-1.12904e-05
-1.11979e-05
-1.11033e-05
-1.10065e-05
-1.09073e-05
-1.08054e-05
-1.07e-05
-1.05901e-05
-1.04741e-05
-1.03501e-05
-1.02157e-05
-1.00682e-05
-9.90448e-06
-9.72181e-06
-9.51604e-06
-9.2881e-06
-9.01228e-06
-8.88507e-06
-1.23623e-05
-1.23063e-05
-1.22424e-05
-1.21769e-05
-1.21089e-05
-1.20374e-05
-1.19622e-05
-1.18836e-05
-1.18015e-05
-1.17162e-05
-1.16279e-05
-1.15367e-05
-1.14427e-05
-1.13462e-05
-1.1247e-05
-1.11451e-05
-1.10401e-05
-1.09315e-05
-1.08182e-05
-1.06991e-05
-1.05725e-05
-1.04362e-05
-1.02878e-05
-1.01246e-05
-9.94386e-06
-9.74286e-06
-9.51804e-06
-9.27044e-06
-8.97783e-06
-8.81569e-06
-1.2559e-05
-1.24995e-05
-1.24319e-05
-1.23629e-05
-1.22915e-05
-1.22166e-05
-1.21382e-05
-1.20562e-05
-1.19709e-05
-1.18823e-05
-1.17905e-05
-1.16957e-05
-1.15978e-05
-1.1497e-05
-1.1393e-05
-1.12857e-05
-1.11744e-05
-1.10583e-05
-1.09365e-05
-1.08075e-05
-1.06693e-05
-1.05198e-05
-1.03566e-05
-1.01771e-05
-9.97862e-06
-9.75898e-06
-9.51519e-06
-9.24846e-06
-8.93998e-06
-8.7454e-06
-1.27582e-05
-1.26952e-05
-1.26239e-05
-1.25513e-05
-1.24765e-05
-1.23983e-05
-1.23166e-05
-1.22314e-05
-1.21427e-05
-1.20507e-05
-1.19554e-05
-1.18568e-05
-1.17549e-05
-1.16496e-05
-1.15405e-05
-1.14272e-05
-1.13091e-05
-1.11851e-05
-1.1054e-05
-1.09141e-05
-1.07635e-05
-1.06001e-05
-1.04212e-05
-1.02247e-05
-1.00081e-05
-9.76962e-06
-9.50705e-06
-9.22186e-06
-8.89849e-06
-8.67407e-06
-1.2959e-05
-1.28926e-05
-1.28175e-05
-1.27414e-05
-1.26632e-05
-1.25817e-05
-1.24967e-05
-1.24082e-05
-1.23162e-05
-1.22208e-05
-1.21219e-05
-1.20194e-05
-1.19133e-05
-1.18031e-05
-1.16885e-05
-1.15689e-05
-1.14433e-05
-1.13107e-05
-1.11695e-05
-1.1018e-05
-1.08542e-05
-1.06759e-05
-1.04807e-05
-1.02665e-05
-1.00315e-05
-9.77418e-06
-9.49314e-06
-9.19019e-06
-8.85282e-06
-8.60152e-06
-1.31605e-05
-1.30906e-05
-1.30117e-05
-1.29322e-05
-1.28507e-05
-1.27659e-05
-1.26776e-05
-1.25858e-05
-1.24906e-05
-1.23917e-05
-1.22891e-05
-1.21826e-05
-1.20719e-05
-1.19567e-05
-1.18362e-05
-1.17096e-05
-1.15761e-05
-1.14341e-05
-1.1282e-05
-1.11181e-05
-1.09403e-05
-1.07462e-05
-1.05341e-05
-1.03018e-05
-1.00481e-05
-9.77208e-06
-9.47295e-06
-9.15296e-06
-8.80231e-06
-8.52682e-06
-1.33616e-05
-1.32882e-05
-1.32057e-05
-1.31227e-05
-1.30379e-05
-1.29499e-05
-1.28584e-05
-1.27635e-05
-1.26648e-05
-1.25625e-05
-1.24561e-05
-1.23454e-05
-1.223e-05
-1.21092e-05
-1.19824e-05
-1.18484e-05
-1.17062e-05
-1.15541e-05
-1.13904e-05
-1.12132e-05
-1.10205e-05
-1.08102e-05
-1.05804e-05
-1.03298e-05
-1.00573e-05
-9.76274e-06
-9.44598e-06
-9.10967e-06
-8.74643e-06
-8.44916e-06
-1.3561e-05
-1.34842e-05
-1.33981e-05
-1.33118e-05
-1.32238e-05
-1.31327e-05
-1.30381e-05
-1.294e-05
-1.2838e-05
-1.27321e-05
-1.26218e-05
-1.25067e-05
-1.23863e-05
-1.22597e-05
-1.2126e-05
-1.19841e-05
-1.18325e-05
-1.16696e-05
-1.14934e-05
-1.13022e-05
-1.10939e-05
-1.08666e-05
-1.06189e-05
-1.03496e-05
-1.00584e-05
-9.74558e-06
-9.41173e-06
-9.05989e-06
-8.68476e-06
-8.36807e-06
-1.37576e-05
-1.36775e-05
-1.35879e-05
-1.34984e-05
-1.34073e-05
-1.33132e-05
-1.32156e-05
-1.31143e-05
-1.3009e-05
-1.28995e-05
-1.27852e-05
-1.26655e-05
-1.25397e-05
-1.24069e-05
-1.2266e-05
-1.21154e-05
-1.19538e-05
-1.17792e-05
-1.15899e-05
-1.13839e-05
-1.11593e-05
-1.09145e-05
-1.06485e-05
-1.03605e-05
-1.00507e-05
-9.72007e-06
-9.36976e-06
-9.00315e-06
-8.61678e-06
-8.28265e-06
-1.39499e-05
-1.38667e-05
-1.37738e-05
-1.36811e-05
-1.35872e-05
-1.34902e-05
-1.33896e-05
-1.32852e-05
-1.31767e-05
-1.30635e-05
-1.2945e-05
-1.28205e-05
-1.26891e-05
-1.25496e-05
-1.24008e-05
-1.22411e-05
-1.20687e-05
-1.18818e-05
-1.16786e-05
-1.1457e-05
-1.12156e-05
-1.0953e-05
-1.06684e-05
-1.03618e-05
-1.00337e-05
-9.6857e-06
-9.31963e-06
-8.9391e-06
-8.54219e-06
-8.1923e-06
-1.41367e-05
-1.40505e-05
-1.39544e-05
-1.38588e-05
-1.3762e-05
-1.36623e-05
-1.35589e-05
-1.34515e-05
-1.33397e-05
-1.32227e-05
-1.31e-05
-1.29704e-05
-1.2833e-05
-1.26865e-05
-1.25293e-05
-1.23597e-05
-1.21759e-05
-1.1976e-05
-1.17581e-05
-1.15205e-05
-1.12618e-05
-1.0981e-05
-1.06778e-05
-1.03526e-05
-1.00067e-05
-9.64201e-06
-9.26094e-06
-8.86742e-06
-8.46095e-06
-8.09778e-06
-1.43164e-05
-1.42273e-05
-1.41282e-05
-1.40299e-05
-1.39306e-05
-1.38282e-05
-1.37221e-05
-1.36118e-05
-1.34967e-05
-1.3376e-05
-1.32487e-05
-1.31139e-05
-1.29702e-05
-1.28161e-05
-1.26499e-05
-1.24699e-05
-1.2274e-05
-1.20605e-05
-1.18274e-05
-1.15732e-05
-1.12968e-05
-1.09976e-05
-1.06759e-05
-1.03325e-05
-9.96919e-06
-9.58853e-06
-9.19333e-06
-8.78782e-06
-8.37273e-06
-7.99766e-06
-1.44875e-05
-1.43958e-05
-1.42939e-05
-1.41931e-05
-1.40914e-05
-1.39866e-05
-1.38779e-05
-1.37647e-05
-1.36463e-05
-1.35217e-05
-1.33899e-05
-1.32495e-05
-1.30991e-05
-1.2937e-05
-1.27613e-05
-1.25702e-05
-1.23617e-05
-1.21339e-05
-1.1885e-05
-1.16138e-05
-1.13195e-05
-1.1002e-05
-1.06619e-05
-1.03007e-05
-9.92068e-06
-9.52485e-06
-9.11646e-06
-8.70013e-06
-8.27699e-06
-7.88893e-06
-1.46485e-05
-1.45543e-05
-1.44499e-05
-1.43468e-05
-1.42429e-05
-1.41358e-05
-1.40247e-05
-1.39087e-05
-1.3787e-05
-1.36585e-05
-1.35219e-05
-1.33757e-05
-1.32182e-05
-1.30476e-05
-1.2862e-05
-1.26593e-05
-1.24376e-05
-1.21949e-05
-1.19298e-05
-1.16414e-05
-1.1329e-05
-1.09932e-05
-1.06351e-05
-1.02567e-05
-9.86068e-06
-9.45058e-06
-9.03007e-06
-8.60416e-06
-8.17262e-06
-7.77262e-06
-1.47976e-05
-1.47012e-05
-1.45947e-05
-1.44895e-05
-1.43836e-05
-1.42745e-05
-1.4161e-05
-1.40423e-05
-1.39173e-05
-1.37848e-05
-1.36432e-05
-1.34909e-05
-1.3326e-05
-1.31466e-05
-1.29505e-05
-1.27357e-05
-1.25002e-05
-1.22423e-05
-1.19607e-05
-1.16547e-05
-1.13244e-05
-1.09706e-05
-1.05949e-05
-1.01999e-05
-9.78874e-06
-9.36534e-06
-8.93387e-06
-8.49935e-06
-8.05849e-06
-7.65046e-06
-1.49333e-05
-1.4835e-05
-1.47265e-05
-1.46196e-05
-1.45119e-05
-1.44009e-05
-1.42853e-05
-1.41639e-05
-1.40357e-05
-1.38991e-05
-1.37524e-05
-1.35937e-05
-1.3421e-05
-1.32323e-05
-1.30253e-05
-1.27978e-05
-1.25482e-05
-1.22747e-05
-1.19764e-05
-1.16529e-05
-1.13048e-05
-1.09333e-05
-1.05406e-05
-1.01298e-05
-9.70444e-06
-9.26881e-06
-8.82754e-06
-8.38458e-06
-7.93603e-06
-7.52159e-06
-1.50539e-05
-1.49539e-05
-1.48437e-05
-1.47353e-05
-1.46262e-05
-1.45135e-05
-1.43959e-05
-1.4272e-05
-1.41405e-05
-1.39997e-05
-1.38477e-05
-1.36824e-05
-1.35016e-05
-1.33032e-05
-1.30848e-05
-1.28444e-05
-1.25802e-05
-1.22909e-05
-1.19758e-05
-1.1635e-05
-1.12693e-05
-1.08806e-05
-1.04717e-05
-1.00459e-05
-9.60741e-06
-9.16073e-06
-8.71073e-06
-8.25876e-06
-7.80579e-06
-7.38513e-06
-1.51576e-05
-1.50563e-05
-1.49448e-05
-1.48352e-05
-1.47248e-05
-1.46107e-05
-1.44912e-05
-1.43649e-05
-1.42301e-05
-1.4085e-05
-1.39275e-05
-1.37554e-05
-1.35662e-05
-1.33578e-05
-1.31277e-05
-1.2874e-05
-1.25951e-05
-1.22899e-05
-1.1958e-05
-1.15999e-05
-1.12172e-05
-1.0812e-05
-1.03876e-05
-9.94791e-06
-9.49731e-06
-9.04083e-06
-8.58262e-06
-8.12223e-06
-7.66707e-06
-7.24077e-06
-1.52428e-05
-1.51405e-05
-1.5028e-05
-1.49175e-05
-1.48062e-05
-1.46908e-05
-1.45696e-05
-1.44409e-05
-1.43029e-05
-1.41534e-05
-1.39903e-05
-1.38111e-05
-1.36133e-05
-1.33945e-05
-1.31525e-05
-1.28853e-05
-1.25915e-05
-1.22704e-05
-1.19219e-05
-1.15471e-05
-1.11477e-05
-1.07268e-05
-1.02879e-05
-9.83536e-06
-9.3739e-06
-8.90874e-06
-8.44211e-06
-7.97616e-06
-7.51939e-06
-7.0879e-06
-1.53078e-05
-1.52048e-05
-1.50917e-05
-1.49806e-05
-1.48686e-05
-1.47522e-05
-1.46295e-05
-1.44985e-05
-1.43572e-05
-1.42034e-05
-1.40345e-05
-1.3848e-05
-1.36413e-05
-1.3412e-05
-1.31578e-05
-1.2877e-05
-1.25683e-05
-1.22314e-05
-1.18667e-05
-1.14755e-05
-1.10604e-05
-1.06246e-05
-1.01723e-05
-9.70796e-06
-9.23691e-06
-8.76389e-06
-8.28919e-06
-7.8203e-06
-7.36249e-06
-6.92634e-06
-1.5351e-05
-1.52476e-05
-1.51342e-05
-1.50229e-05
-1.49105e-05
-1.47933e-05
-1.46692e-05
-1.4536e-05
-1.43915e-05
-1.42332e-05
-1.40585e-05
-1.38646e-05
-1.36489e-05
-1.34088e-05
-1.31424e-05
-1.28479e-05
-1.25245e-05
-1.21721e-05
-1.17915e-05
-1.13847e-05
-1.09546e-05
-1.05049e-05
-1.00402e-05
-9.56546e-06
-9.08604e-06
-8.60536e-06
-8.12498e-06
-7.65429e-06
-7.19584e-06
-6.75578e-06
-1.53706e-05
-1.52674e-05
-1.5154e-05
-1.50428e-05
-1.49303e-05
-1.48125e-05
-1.46872e-05
-1.45519e-05
-1.44042e-05
-1.42415e-05
-1.40608e-05
-1.38594e-05
-1.36345e-05
-1.33837e-05
-1.3105e-05
-1.2797e-05
-1.2459e-05
-1.20914e-05
-1.16956e-05
-1.1274e-05
-1.08298e-05
-1.03674e-05
-9.89154e-06
-9.40763e-06
-8.92088e-06
-8.43284e-06
-7.94957e-06
-7.47783e-06
-7.01938e-06
-6.5761e-06
-7.17045e-06
-6.89896e-06
-6.5838e-06
-6.21838e-06
-5.80477e-06
-5.34449e-06
-4.84199e-06
-4.30365e-06
-3.73822e-06
-3.15609e-06
-2.56915e-06
-1.99096e-06
-1.43497e-06
-9.13914e-07
-4.38533e-07
-1.80762e-08
3.4024e-07
6.32764e-07
8.58826e-07
1.02078e-06
1.12364e-06
1.17453e-06
1.18201e-06
1.15523e-06
1.10323e-06
1.03427e-06
9.55425e-07
8.72316e-07
7.89113e-07
7.08683e-07
6.32829e-07
5.62524e-07
4.9816e-07
4.39763e-07
3.8712e-07
3.39875e-07
2.97603e-07
2.59896e-07
2.2634e-07
1.96529e-07
1.70077e-07
1.4667e-07
1.25973e-07
1.0771e-07
9.16194e-08
7.751e-08
6.5129e-08
5.43929e-08
4.50578e-08
3.7038e-08
3.00346e-08
2.41939e-08
1.90518e-08
1.50315e-08
1.12612e-08
8.79171e-09
5.89287e-09
4.63253e-09
1.73623e-09
3.14102e-09
-7.19365e-06
-6.92013e-06
-6.60575e-06
-6.24064e-06
-5.8273e-06
-5.36706e-06
-4.86442e-06
-4.32573e-06
-3.75974e-06
-3.17683e-06
-2.58897e-06
-2.00969e-06
-1.45246e-06
-9.30053e-07
-4.53231e-07
-3.13015e-08
3.28506e-07
6.22509e-07
8.50002e-07
1.01331e-06
1.11739e-06
1.16943e-06
1.17789e-06
1.15196e-06
1.10067e-06
1.03229e-06
9.53912e-07
8.71161e-07
7.88253e-07
7.08026e-07
6.32341e-07
5.62169e-07
4.97884e-07
4.39556e-07
3.86947e-07
3.39767e-07
2.97536e-07
2.59821e-07
2.26288e-07
1.9647e-07
1.70029e-07
1.46638e-07
1.25957e-07
1.07694e-07
9.16142e-08
7.74892e-08
6.51276e-08
5.43766e-08
4.50548e-08
3.70323e-08
3.00212e-08
2.42119e-08
1.90423e-08
1.5059e-08
1.12587e-08
8.81117e-09
5.88974e-09
4.60552e-09
1.76045e-09
3.14601e-09
-7.23949e-06
-6.96202e-06
-6.64911e-06
-6.28454e-06
-5.87171e-06
-5.41158e-06
-4.9087e-06
-4.36937e-06
-3.80234e-06
-3.21791e-06
-2.62827e-06
-2.04685e-06
-1.48718e-06
-9.62107e-07
-4.82466e-07
-5.76242e-08
3.05141e-07
6.02068e-07
8.32401e-07
9.98394e-07
1.10496e-06
1.15924e-06
1.16966e-06
1.14541e-06
1.09553e-06
1.02831e-06
9.50866e-07
8.68849e-07
7.86507e-07
7.06721e-07
6.31359e-07
5.61433e-07
4.97338e-07
4.39142e-07
3.86634e-07
3.39529e-07
2.97353e-07
2.59682e-07
2.26179e-07
1.96388e-07
1.69961e-07
1.4658e-07
1.25908e-07
1.07658e-07
9.15801e-08
7.74632e-08
6.51085e-08
5.43662e-08
4.5041e-08
3.70211e-08
3.00155e-08
2.42091e-08
1.90409e-08
1.5058e-08
1.12606e-08
8.80962e-09
5.88883e-09
4.60458e-09
1.76092e-09
3.14432e-09
-7.30634e-06
-7.02316e-06
-6.7126e-06
-6.34882e-06
-5.93677e-06
-5.47686e-06
-4.9737e-06
-4.4335e-06
-3.86501e-06
-3.27844e-06
-2.68624e-06
-2.10174e-06
-1.53856e-06
-1.00959e-06
-5.25827e-07
-9.6714e-08
2.70408e-07
5.7165e-07
8.06179e-07
9.76157e-07
1.0864e-06
1.144e-06
1.15735e-06
1.13561e-06
1.08784e-06
1.02235e-06
9.46306e-07
8.65395e-07
7.83896e-07
7.04755e-07
6.2989e-07
5.6034e-07
4.96519e-07
4.38519e-07
3.86167e-07
3.39174e-07
2.97082e-07
2.59475e-07
2.26016e-07
1.96264e-07
1.6986e-07
1.46499e-07
1.25839e-07
1.07604e-07
9.15325e-08
7.74272e-08
6.50804e-08
5.43471e-08
4.50209e-08
3.70048e-08
3.00052e-08
2.42021e-08
1.90361e-08
1.50543e-08
1.126e-08
8.80601e-09
5.88686e-09
4.60209e-09
1.76141e-09
3.14057e-09
-7.39205e-06
-7.10135e-06
-6.79431e-06
-6.43168e-06
-6.0208e-06
-5.5613e-06
-5.05792e-06
-4.51675e-06
-3.94643e-06
-3.3573e-06
-2.76185e-06
-2.17345e-06
-1.60579e-06
-1.07183e-06
-5.82742e-07
-1.48106e-07
2.24678e-07
5.31556e-07
7.71564e-07
9.46756e-07
1.06184e-06
1.12381e-06
1.14102e-06
1.12261e-06
1.07763e-06
1.01445e-06
9.40243e-07
8.60787e-07
7.8042e-07
7.02149e-07
6.27938e-07
5.58878e-07
4.95421e-07
4.37694e-07
3.85549e-07
3.38701e-07
2.96718e-07
2.592e-07
2.25802e-07
1.96097e-07
1.69727e-07
1.46393e-07
1.25751e-07
1.07535e-07
9.14717e-08
7.73811e-08
6.50432e-08
5.43196e-08
4.49944e-08
3.69833e-08
2.99902e-08
2.41909e-08
1.90279e-08
1.50478e-08
1.12572e-08
8.80029e-09
5.88384e-09
4.59811e-09
1.7619e-09
3.13478e-09
-7.4941e-06
-7.19383e-06
-6.89182e-06
-6.5308e-06
-6.12161e-06
-5.66288e-06
-5.15948e-06
-4.61736e-06
-4.04499e-06
-3.45305e-06
-2.85383e-06
-2.26085e-06
-1.68789e-06
-1.14799e-06
-6.52506e-07
-2.11208e-07
1.68426e-07
4.82155e-07
7.28848e-07
9.10412e-07
1.03144e-06
1.09878e-06
1.12076e-06
1.10646e-06
1.06493e-06
1.0046e-06
9.32687e-07
8.55044e-07
7.76086e-07
6.98898e-07
6.25502e-07
5.57047e-07
4.94049e-07
4.36667e-07
3.84778e-07
3.38108e-07
2.96264e-07
2.58859e-07
2.25537e-07
1.95889e-07
1.69561e-07
1.46263e-07
1.25644e-07
1.07448e-07
9.13981e-08
7.73246e-08
6.49967e-08
5.42838e-08
4.49617e-08
3.69567e-08
2.99706e-08
2.41755e-08
1.90164e-08
1.50386e-08
1.1252e-08
8.79248e-09
5.87977e-09
4.59266e-09
1.76237e-09
3.12696e-09
-7.60994e-06
-7.29734e-06
-7.00234e-06
-6.64351e-06
-6.23667e-06
-5.77921e-06
-5.27616e-06
-4.73322e-06
-4.15897e-06
-3.564e-06
-2.96069e-06
-2.36262e-06
-1.78371e-06
-1.23707e-06
-7.34295e-07
-2.85334e-07
1.02211e-07
4.23892e-07
6.78377e-07
8.67396e-07
9.95384e-07
1.06905e-06
1.09664e-06
1.08721e-06
1.04979e-06
9.92835e-07
9.23655e-07
8.48176e-07
7.70896e-07
6.95001e-07
6.22582e-07
5.54853e-07
4.92404e-07
4.35437e-07
3.83851e-07
3.37398e-07
2.9572e-07
2.58449e-07
2.25219e-07
1.95641e-07
1.69363e-07
1.46109e-07
1.25517e-07
1.07346e-07
9.13116e-08
7.72577e-08
6.49411e-08
5.424e-08
4.49229e-08
3.69249e-08
2.99464e-08
2.41561e-08
1.90017e-08
1.50266e-08
1.12444e-08
8.7826e-09
5.87467e-09
4.58574e-09
1.76285e-09
3.11712e-09
-7.73785e-06
-7.4076e-06
-7.12311e-06
-6.76689e-06
-6.36317e-06
-5.90763e-06
-5.40545e-06
-4.86214e-06
-4.28624e-06
-3.68828e-06
-3.08077e-06
-2.47731e-06
-1.89197e-06
-1.33799e-06
-8.27182e-07
-3.69717e-07
2.66631e-08
3.57275e-07
6.20538e-07
8.17993e-07
9.53883e-07
1.03477e-06
1.06879e-06
1.06493e-06
1.03224e-06
9.79186e-07
9.13162e-07
8.40189e-07
7.64856e-07
6.90461e-07
6.19178e-07
5.52299e-07
4.90489e-07
4.34e-07
3.82768e-07
3.36571e-07
2.95089e-07
2.57971e-07
2.24848e-07
1.95351e-07
1.69133e-07
1.45929e-07
1.25369e-07
1.07227e-07
9.12063e-08
7.71803e-08
6.48765e-08
5.41883e-08
4.4878e-08
3.68879e-08
2.99175e-08
2.41326e-08
1.89837e-08
1.50118e-08
1.12345e-08
8.77065e-09
5.86854e-09
4.57737e-09
1.76332e-09
3.10526e-09
-7.87808e-06
-7.51869e-06
-7.25198e-06
-6.898e-06
-6.49814e-06
-6.04528e-06