/*--------------------------------*- C++ -*----------------------------------*\
| =========                 |                                                 |
| \\      /  F ield         | foam-extend: Open Source CFD                    |
|  \\    /   O peration     | Version:     4.0                                |
|   \\  /    A nd           | Web:         http://www.foam-extend.org         |
|    \\/     M anipulation  |                                                 |
\*---------------------------------------------------------------------------*/
FoamFile
{
    version     2.0;
    format      ascii;
    class       surfaceScalarField;
    location    "50";
    object      phi;
}
// * * * * * * * * * * * * * * * * * * * * * * * * * * * * * * * * * * * * * //

dimensions      [0 3 -1 0 0 0 0];

internalField   nonuniform List<scalar> 
71520
(
-2.39599e-10
2.3784e-10
1.75928e-12
-9.63685e-10
7.18719e-10
5.36903e-12
-2.2065e-09
1.23353e-09
9.28607e-12
-4.00214e-09
1.78213e-09
1.35116e-11
-6.38423e-09
2.36405e-09
1.80431e-11
-9.38561e-09
2.9785e-09
2.28736e-11
-1.30379e-08
3.62431e-09
2.7992e-11
-1.73712e-08
4.29995e-09
3.33818e-11
-2.24137e-08
5.00345e-09
3.90206e-11
-2.81909e-08
5.73231e-09
4.48801e-11
-3.47253e-08
6.48346e-09
5.09252e-11
-4.20355e-08
7.25313e-09
5.71134e-11
-5.01357e-08
8.03673e-09
6.33941e-11
-5.9034e-08
8.82864e-09
6.97089e-11
-6.87321e-08
9.62207e-09
7.59905e-11
-7.92231e-08
1.04088e-08
8.21622e-11
-9.04901e-08
1.11789e-08
8.81361e-11
-1.02504e-07
1.192e-08
9.3812e-11
-1.1522e-07
1.26174e-08
9.90743e-11
-1.28577e-07
1.32526e-08
1.03789e-10
-1.42488e-07
1.38033e-08
1.07801e-10
-1.56841e-07
1.4242e-08
1.10926e-10
-1.71489e-07
1.45351e-08
1.12949e-10
-1.86244e-07
1.46419e-08
1.13619e-10
-2.00871e-07
1.45136e-08
1.12637e-10
-2.15072e-07
1.4092e-08
1.09659e-10
-2.28485e-07
1.33082e-08
1.04288e-10
-2.40662e-07
1.20809e-08
9.61063e-11
-2.51055e-07
1.03081e-08
8.47546e-11
7.90263e-09
-2.59026e-07
6.90383e-11
-2.36079e-10
4.7392e-10
-9.49708e-10
1.43235e-09
-2.1748e-09
2.45862e-09
-3.94513e-09
3.55246e-09
-6.29399e-09
4.71291e-09
-9.25384e-09
5.93834e-09
-1.28559e-08
7.22641e-09
-1.713e-08
8.574e-09
-2.21036e-08
9.97707e-09
-2.78019e-08
1.14306e-08
-3.42466e-08
1.29282e-08
-4.14558e-08
1.44623e-08
-4.94427e-08
1.60236e-08
-5.82145e-08
1.76005e-08
-6.77718e-08
1.91794e-08
-7.81064e-08
2.07434e-08
-8.92e-08
2.22724e-08
-1.01022e-07
2.37416e-08
-1.13525e-07
2.51207e-08
-1.26645e-07
2.63727e-08
-1.40294e-07
2.74525e-08
-1.54357e-07
2.83044e-08
-1.68682e-07
2.88607e-08
-1.8308e-07
2.90396e-08
-1.97309e-07
2.8743e-08
-2.11071e-07
2.78537e-08
-2.23997e-07
2.62342e-08
-2.35639e-07
2.37229e-08
-2.45455e-07
2.01246e-08
1.52171e-08
-2.5277e-07
-2.29131e-10
7.03051e-10
-9.22094e-10
2.12531e-09
-2.11215e-09
3.64867e-09
-3.83241e-09
5.27272e-09
-6.11548e-09
6.99598e-09
-8.99311e-09
8.81597e-09
-1.24958e-08
1.07291e-08
-1.66524e-08
1.27306e-08
-2.14895e-08
1.48142e-08
-2.70313e-08
1.69723e-08
-3.32983e-08
1.91952e-08
-4.03071e-08
2.14711e-08
-4.80692e-08
2.37857e-08
-5.65901e-08
2.61214e-08
-6.5868e-08
2.84573e-08
-7.58922e-08
3.07677e-08
-8.66414e-08
3.30217e-08
-9.80813e-08
3.51815e-08
-1.10162e-07
3.7201e-08
-1.22813e-07
3.90241e-08
-1.35942e-07
4.05819e-08
-1.49428e-07
4.17903e-08
-1.63114e-07
4.25468e-08
-1.76803e-07
4.2728e-08
-1.90246e-07
4.21857e-08
-2.03136e-07
4.07439e-08
-2.15098e-07
3.81961e-08
-2.25675e-07
3.43008e-08
-2.34334e-07
2.87835e-08
2.12496e-08
-2.40367e-07
-2.18947e-10
9.21998e-10
-8.81597e-10
2.78796e-09
-2.02022e-09
4.7873e-09
-3.66693e-09
6.91943e-09
-5.8533e-09
9.18235e-09
-8.60998e-09
1.15727e-08
-1.19663e-08
1.40854e-08
-1.59499e-08
1.67142e-08
-2.0586e-08
1.94504e-08
-2.58971e-08
2.22834e-08
-3.19019e-08
2.52e-08
-3.86149e-08
2.81841e-08
-4.60451e-08
3.12159e-08
-5.41953e-08
3.42716e-08
-6.30605e-08
3.73224e-08
-7.26261e-08
4.03333e-08
-8.28666e-08
4.32621e-08
-9.37424e-08
4.60573e-08
-1.05198e-07
4.86563e-08
-1.17156e-07
5.09827e-08
-1.29518e-07
5.29435e-08
-1.42153e-07
5.44249e-08
-1.54895e-07
5.52891e-08
-1.67537e-07
5.537e-08
-1.7982e-07
5.44688e-08
-1.91426e-07
5.23496e-08
-2.01967e-07
4.87376e-08
-2.1098e-07
4.33138e-08
-2.17926e-07
3.57293e-08
2.53973e-08
-2.22074e-07
-2.05807e-10
1.1278e-09
-8.29303e-10
3.41145e-09
-1.90144e-09
5.85944e-09
-3.45298e-09
8.47097e-09
-5.5141e-09
1.12435e-08
-8.11402e-09
1.41726e-08
-1.12805e-08
1.72519e-08
-1.50395e-08
2.04731e-08
-1.94143e-08
2.38252e-08
-2.44253e-08
2.72943e-08
-3.00888e-08
3.08635e-08
-3.64164e-08
3.45118e-08
-4.34143e-08
3.82137e-08
-5.10812e-08
4.19386e-08
-5.9408e-08
4.56492e-08
-6.83753e-08
4.93006e-08
-7.79517e-08
5.28385e-08
-8.80913e-08
5.61969e-08
-9.87307e-08
5.92957e-08
-1.09785e-07
6.20375e-08
-1.21146e-07
6.43036e-08
-1.3267e-07
6.59498e-08
-1.44183e-07
6.68016e-08
-1.55462e-07
6.66494e-08
-1.66236e-07
6.52429e-08
-1.76172e-07
6.22856e-08
-1.84871e-07
5.74361e-08
-1.91856e-07
5.02988e-08
-1.96572e-07
4.0445e-08
2.71002e-08
-1.98275e-07
-1.90064e-10
1.31787e-09
-7.66587e-10
3.98798e-09
-1.75887e-09
6.85172e-09
-3.19599e-09
9.90809e-09
-5.10637e-09
1.31539e-08
-7.51738e-09
1.65836e-08
-1.04548e-08
2.01894e-08
-1.39425e-08
2.39608e-08
-1.80014e-08
2.78841e-08
-2.26491e-08
3.19421e-08
-2.78992e-08
3.61135e-08
-3.37597e-08
4.03724e-08
-4.02329e-08
4.46869e-08
-4.7313e-08
4.90188e-08
-5.49858e-08
5.3322e-08
-6.32258e-08
5.75407e-08
-7.1995e-08
6.16076e-08
-8.12395e-08
6.54414e-08
-9.0887e-08
6.89433e-08
-1.00843e-07
7.19935e-08
-1.10986e-07
7.44467e-08
-1.21163e-07
7.61268e-08
-1.31183e-07
7.68217e-08
-1.40811e-07
7.62768e-08
-1.49757e-07
7.41896e-08
-1.57675e-07
7.02035e-08
-1.6415e-07
6.39103e-08
-1.68684e-07
5.48337e-08
-1.70711e-07
4.24713e-08
2.58519e-08
-1.69462e-07
-1.72131e-10
1.49e-09
-6.95066e-10
4.51091e-09
-1.59613e-09
7.75279e-09
-2.90236e-09
1.12143e-08
-4.64005e-09
1.48915e-08
-6.83436e-09
1.87779e-08
-9.50872e-09
2.28638e-08
-1.26843e-08
2.71364e-08
-1.63793e-08
3.15791e-08
-2.06083e-08
3.6171e-08
-2.5381e-08
4.08863e-08
-3.07017e-08
4.56931e-08
-3.65678e-08
5.0553e-08
-4.29686e-08
5.54196e-08
-4.98836e-08
6.02369e-08
-5.72806e-08
6.49376e-08
-6.51135e-08
6.94405e-08
-7.33197e-08
7.36476e-08
-8.18167e-08
7.74403e-08
-9.04985e-08
8.06752e-08
-9.92309e-08
8.3179e-08
-1.07847e-07
8.47427e-08
-1.1614e-07
8.51146e-08
-1.23858e-07
8.39951e-08
-1.30696e-07
8.10278e-08
-1.36289e-07
7.57968e-08
-1.40202e-07
6.78233e-08
-1.41918e-07
5.65498e-08
-1.40861e-07
4.14134e-08
2.12069e-08
-1.36216e-07
-1.5247e-10
1.64247e-09
-6.16537e-10
4.97498e-09
-1.41723e-09
8.55349e-09
-2.5792e-09
1.23763e-08
-4.12627e-09
1.64386e-08
-6.08097e-09
2.07326e-08
-8.46395e-09
2.52467e-08
-1.12934e-08
2.99658e-08
-1.45842e-08
3.48699e-08
-1.83471e-08
3.9934e-08
-2.25879e-08
4.51271e-08
-2.73063e-08
5.04114e-08
-3.24944e-08
5.57411e-08
-3.81356e-08
6.10608e-08
-4.42026e-08
6.63039e-08
-5.06556e-08
7.13906e-08
-5.74397e-08
7.62246e-08
-6.44824e-08
8.06903e-08
-7.16899e-08
8.46479e-08
-7.89439e-08
8.79292e-08
-8.60963e-08
9.03314e-08
-9.2965e-08
9.16114e-08
-9.93275e-08
9.14772e-08
-1.04915e-07
8.95825e-08
-1.09405e-07
8.55174e-08
-1.1241e-07
7.88025e-08
-1.13475e-07
6.8888e-08
-1.12064e-07
5.51388e-08
-1.07599e-07
3.6948e-08
1.27907e-08
-9.91824e-08
-1.31568e-10
1.77404e-09
-5.3291e-10
5.37632e-09
-1.22645e-09
9.24702e-09
-2.23411e-09
1.33839e-08
-3.57688e-09
1.77814e-08
-5.2743e-09
2.243e-08
-7.34383e-09
2.73163e-08
-9.80016e-09
3.24221e-08
-1.26544e-08
3.77241e-08
-1.59133e-08
4.31929e-08
-1.9578e-08
4.87917e-08
-2.36428e-08
5.44763e-08
-2.80943e-08
6.01925e-08
-3.29091e-08
6.58756e-08
-3.80527e-08
7.14475e-08
-4.34769e-08
7.68147e-08
-4.91172e-08
8.1865e-08
-5.48904e-08
8.64635e-08
-6.0691e-08
9.04485e-08
-6.63873e-08
9.36255e-08
-7.1817e-08
9.5761e-08
-7.67822e-08
9.65767e-08
-8.10449e-08
9.57398e-08
-8.4318e-08
9.28556e-08
-8.62593e-08
8.74587e-08
-8.64616e-08
7.90049e-08
-8.44446e-08
6.68709e-08
-7.96552e-08
5.03494e-08
-7.15426e-08
2.88354e-08
3.41954e-10
-5.90938e-08
-1.09925e-10
1.88397e-09
-4.46141e-10
5.71254e-09
-1.02816e-09
9.82904e-09
-1.87488e-09
1.42307e-08
-3.0041e-09
1.89106e-08
-4.43197e-09
2.38579e-08
-6.17237e-09
2.90567e-08
-8.23612e-09
3.44859e-08
-1.06301e-08
4.01182e-08
-1.33565e-08
4.59192e-08
-1.64112e-08
5.18464e-08
-1.9783e-08
5.78481e-08
-2.34521e-08
6.38616e-08
-2.73882e-08
6.98117e-08
-3.15486e-08
7.56079e-08
-3.58761e-08
8.11423e-08
-4.02963e-08
8.62852e-08
-4.47147e-08
9.08819e-08
-4.90132e-08
9.4747e-08
-5.30467e-08
9.76589e-08
-5.66386e-08
9.93529e-08
-5.95758e-08
9.95139e-08
-6.16027e-08
9.77667e-08
-6.24142e-08
9.36671e-08
-6.16491e-08
8.66936e-08
-5.88821e-08
7.62379e-08
-5.36116e-08
6.16004e-08
-4.52381e-08
4.19759e-08
-3.32682e-08
1.68656e-08
-1.59858e-08
-1.69405e-08
-8.80312e-11
1.972e-09
-3.58153e-10
5.98266e-09
-8.26698e-10
1.02976e-08
-1.50922e-09
1.49132e-08
-2.42e-09
1.98214e-08
-3.57146e-09
2.50093e-08
-4.97349e-09
3.04587e-08
-6.63263e-09
3.6145e-08
-8.55119e-09
4.20367e-08
-1.07261e-08
4.80941e-08
-1.31479e-08
5.42682e-08
-1.57993e-08
6.04995e-08
-1.86535e-08
6.67159e-08
-2.16728e-08
7.2831e-08
-2.48061e-08
7.87412e-08
-2.79865e-08
8.43227e-08
-3.11292e-08
8.94279e-08
-3.41279e-08
9.38807e-08
-3.68523e-08
9.74714e-08
-3.91436e-08
9.99503e-08
-4.08108e-08
1.0102e-07
-4.16246e-08
1.00328e-07
-4.13124e-08
9.74545e-08
-3.95516e-08
9.19063e-08
-3.59629e-08
8.31049e-08
-3.01046e-08
7.03796e-08
-2.14716e-08
5.29674e-08
-9.48631e-09
2.99906e-08
6.92303e-09
4.56206e-10
-3.63368e-08
2.7274e-08
-6.63464e-11
2.03834e-09
-2.7076e-10
6.18707e-09
-6.26151e-10
1.0653e-08
-1.14446e-09
1.54315e-08
-1.83613e-09
2.05131e-08
-2.70952e-09
2.58827e-08
-3.77017e-09
3.15193e-08
-5.01996e-09
3.73948e-08
-6.45618e-09
4.34729e-08
-8.0703e-09
4.97082e-08
-9.84687e-09
5.60448e-08
-1.17621e-08
6.24147e-08
-1.37821e-08
6.87359e-08
-1.5861e-08
7.49099e-08
-1.79388e-08
8.08189e-08
-1.99386e-08
8.63225e-08
-2.17649e-08
9.12542e-08
-2.33e-08
9.54158e-08
-2.44009e-08
9.85723e-08
-2.48951e-08
1.00444e-07
-2.45765e-08
1.00702e-07
-2.32003e-08
9.89516e-08
-2.04776e-08
9.47318e-08
-1.60694e-08
8.74981e-08
-9.58017e-09
7.66157e-08
-5.51843e-10
6.13512e-08
1.15457e-08
4.08699e-08
2.7308e-08
1.42283e-08
4.74257e-08
-1.96616e-08
-6.16005e-08
7.26895e-08
-4.52775e-11
2.08362e-09
-1.85584e-10
6.32737e-09
-4.30206e-10
1.08976e-08
-7.87239e-10
1.57885e-08
-1.26304e-09
2.09889e-08
-1.86156e-09
2.64813e-08
-2.58367e-09
3.22414e-08
-3.4262e-09
3.82374e-08
-4.38105e-09
4.44278e-08
-5.43391e-09
5.07611e-08
-6.56305e-09
5.71739e-08
-7.73782e-09
6.35894e-08
-8.91662e-09
6.99147e-08
-1.0045e-08
7.60383e-08
-1.10536e-08
8.18275e-08
-1.18556e-08
8.71245e-08
-1.23448e-08
9.17435e-08
-1.23918e-08
9.54628e-08
-1.18406e-08
9.8021e-08
-1.05052e-08
9.9109e-08
-8.16498e-09
9.83613e-08
-4.5599e-09
9.53465e-08
6.14452e-10
8.95574e-08
7.71276e-09
8.03997e-08
1.71451e-08
6.71834e-08
2.93843e-08
4.9112e-08
4.49725e-08
2.52816e-08
6.4527e-08
-5.32616e-09
8.86927e-08
-4.38273e-08
-9.12857e-08
1.18378e-07
-2.51612e-11
2.10878e-09
-1.03987e-10
6.4062e-09
-2.41992e-10
1.10356e-08
-4.43251e-10
1.59898e-08
-7.09818e-10
2.12554e-08
-1.04105e-09
2.68125e-08
-1.43276e-09
3.26332e-08
-1.87637e-09
3.8681e-08
-2.35797e-09
4.49094e-08
-2.8574e-09
5.12605e-08
-3.34641e-09
5.76629e-08
-3.78667e-09
6.40297e-08
-4.12826e-09
7.02563e-08
-4.30793e-09
7.6218e-08
-4.24708e-09
8.17666e-08
-3.84926e-09
8.67267e-08
-2.9969e-09
9.08911e-08
-1.54895e-09
9.40148e-08
6.63026e-10
9.58091e-08
3.83881e-09
9.59333e-08
8.2133e-09
9.39868e-08
1.40611e-08
8.94987e-08
2.17011e-08
8.19173e-08
3.15018e-08
7.05991e-08
4.38869e-08
5.47983e-08
5.93412e-08
3.36578e-08
7.84164e-08
6.20648e-09
1.01734e-07
-2.86438e-08
1.29962e-07
-7.2055e-08
-1.25306e-07
1.63982e-07
-6.27467e-12
2.11505e-09
-2.71088e-11
6.42703e-09
-6.41098e-11
1.10726e-08
-1.17152e-10
1.60428e-08
-1.83805e-10
2.13221e-08
-2.58654e-10
2.68873e-08
-3.32466e-10
3.2707e-08
-3.91213e-10
3.87397e-08
-4.14911e-10
4.49331e-08
-3.76347e-10
5.1222e-08
-2.39669e-10
5.75263e-08
4.11043e-11
6.37489e-08
5.23792e-10
6.97736e-08
1.28013e-09
7.54616e-08
2.398e-09
8.06488e-08
3.984e-09
8.51407e-08
6.16678e-09
8.87083e-08
9.09954e-09
9.10821e-08
1.29635e-08
9.1945e-08
1.79718e-08
9.0925e-08
2.43729e-08
8.75857e-08
3.24553e-08
8.14163e-08
4.25516e-08
7.1821e-08
5.50432e-08
5.81075e-08
7.03653e-08
3.94762e-08
8.90119e-08
1.50111e-08
1.1154e-07
-1.63221e-08
1.38577e-07
-5.568e-08
1.70803e-07
-1.04281e-07
-1.6358e-07
2.09077e-07
1.1024e-11
2.10403e-09
4.37536e-11
6.3943e-09
1.00627e-10
1.10157e-08
1.86137e-10
1.59573e-08
3.07415e-10
2.12008e-08
4.74938e-10
2.67198e-08
7.03387e-10
3.24785e-08
1.01264e-09
3.84305e-08
1.42894e-09
4.45168e-08
1.98633e-09
5.06646e-08
2.72789e-09
5.67847e-08
3.70734e-09
6.27695e-08
4.99085e-09
6.84901e-08
6.65916e-09
7.37933e-08
8.80996e-09
7.8498e-08
1.15606e-08
8.239e-08
1.50508e-08
8.52181e-08
1.94457e-08
8.66872e-08
2.49389e-08
8.64518e-08
3.17565e-08
8.41074e-08
4.01604e-08
7.91818e-08
5.04522e-08
7.11245e-08
6.29774e-08
5.92958e-08
7.8129e-08
4.29559e-08
9.63519e-08
2.12534e-08
1.18147e-07
-6.78397e-09
1.44074e-07
-4.22491e-08
1.7476e-07
-8.63657e-08
2.10892e-07
-1.40413e-07
-2.05999e-07
2.5331e-07
2.66107e-11
2.07742e-09
1.08042e-10
6.31287e-09
2.50868e-10
1.08729e-08
4.64054e-10
1.57441e-08
7.59572e-10
2.09053e-08
1.15313e-09
2.63262e-08
1.66506e-09
3.19666e-08
2.32132e-09
3.77742e-08
3.15468e-09
4.36834e-08
4.20605e-09
4.96132e-08
5.52592e-09
5.54648e-08
7.17602e-09
6.11194e-08
9.23114e-09
6.6435e-08
1.17813e-08
7.12432e-08
1.49342e-08
7.5345e-08
1.8818e-08
7.85063e-08
2.35834e-08
8.04527e-08
2.94074e-08
8.08633e-08
3.64961e-08
7.93631e-08
4.50882e-08
7.55153e-08
5.54587e-08
6.88113e-08
6.79219e-08
5.86613e-08
8.28352e-08
4.43825e-08
1.00602e-07
2.51886e-08
1.21676e-07
1.8011e-10
1.4656e-07
-3.16687e-08
1.75815e-07
-7.15041e-08
2.10064e-07
-1.20614e-07
2.4999e-07
-1.80339e-07
-2.52427e-07
2.96419e-07
4.0454e-11
2.03697e-09
1.65559e-10
6.18776e-09
3.86065e-10
1.06524e-08
7.15481e-10
1.54147e-08
1.17071e-09
2.04501e-08
1.7728e-09
2.57242e-08
2.54785e-09
3.11915e-08
3.52804e-09
3.6794e-08
4.7528e-09
4.24587e-08
6.27019e-09
4.80958e-08
8.13834e-09
5.35967e-08
1.04272e-08
5.88306e-08
1.32203e-08
6.36418e-08
1.66173e-08
6.78462e-08
2.0736e-08
7.12262e-08
2.57152e-08
7.35272e-08
3.17169e-08
7.4451e-08
3.893e-08
7.36502e-08
4.75729e-08
7.07202e-08
5.7897e-08
6.51911e-08
7.01899e-08
5.65185e-08
8.47781e-08
4.4073e-08
1.0203e-07
2.71302e-08
1.2236e-07
4.8594e-09
1.46225e-07
-2.36851e-08
1.7413e-07
-5.95739e-08
2.06633e-07
-1.04007e-07
2.44345e-07
-1.58327e-07
2.8794e-07
-2.23934e-07
-3.0271e-07
3.38223e-07
5.25539e-11
1.98441e-09
2.16297e-10
6.02402e-09
5.06161e-10
1.03625e-08
9.40227e-10
1.49806e-08
1.54038e-09
1.98499e-08
2.33309e-09
2.49314e-08
3.35032e-09
3.01743e-08
4.63057e-09
3.55138e-08
6.2201e-09
4.08691e-08
8.17426e-09
4.61417e-08
1.0559e-08
5.12119e-08
1.34527e-08
5.59369e-08
1.6948e-08
6.01466e-08
2.11541e-08
6.364e-08
2.61993e-08
6.61811e-08
3.22329e-08
6.74936e-08
3.94285e-08
6.72554e-08
4.79869e-08
6.50918e-08
5.81389e-08
6.05682e-08
7.01485e-08
5.31816e-08
8.43155e-08
4.23514e-08
1.00979e-07
2.741e-08
1.20517e-07
7.59203e-09
1.4335e-07
-1.79742e-08
1.69941e-07
-5.0276e-08
2.00794e-07
-9.0427e-08
2.36458e-07
-1.3967e-07
2.77528e-07
-1.99397e-07
3.24651e-07
-2.71057e-07
-3.56671e-07
3.78612e-07
6.29879e-11
1.92143e-09
2.60534e-10
5.82648e-09
6.11735e-10
1.00113e-08
1.13925e-09
1.44531e-08
1.86997e-09
1.91192e-08
2.83583e-09
2.39656e-08
4.07471e-09
2.89354e-08
5.63155e-09
3.39569e-08
7.55953e-09
3.89412e-08
9.92144e-09
4.37798e-08
1.27913e-08
4.83421e-08
1.62559e-08
5.24722e-08
2.04173e-08
5.59851e-08
2.53947e-08
5.86627e-08
3.13264e-08
6.02494e-08
3.83729e-08
6.0447e-08
4.67195e-08
5.89088e-08
5.6579e-08
5.52323e-08
6.81946e-08
4.89526e-08
8.18427e-08
3.95334e-08
9.78355e-08
2.63586e-08
1.16523e-07
8.72259e-09
1.38293e-07
-1.41779e-08
1.63571e-07
-4.32527e-08
1.92823e-07
-7.95276e-08
2.26548e-07
-1.24152e-07
2.65281e-07
-1.78403e-07
3.09591e-07
-2.43707e-07
3.60092e-07
-3.21558e-07
-4.14106e-07
4.17527e-07
7.18988e-11
1.84953e-09
2.98809e-10
5.59957e-09
7.03957e-10
9.6062e-09
1.31456e-09
1.38425e-08
2.16252e-09
1.82712e-08
3.28525e-09
2.28429e-08
4.72662e-09
2.74941e-08
6.53804e-09
3.21455e-08
8.77972e-09
3.66995e-08
1.1522e-08
4.10375e-08
1.4847e-08
4.50171e-08
1.88505e-08
4.84687e-08
2.3644e-08
5.11917e-08
2.93563e-08
5.29503e-08
3.61367e-08
5.3469e-08
4.41568e-08
5.24269e-08
5.36137e-08
4.94519e-08
6.47324e-08
4.41136e-08
7.77686e-08
3.59164e-08
9.30113e-08
2.42908e-08
1.10784e-07
8.58549e-09
1.31448e-07
-1.19409e-08
1.55397e-07
-3.81273e-08
1.83064e-07
-7.0919e-08
2.1491e-07
-1.11374e-07
2.51429e-07
-1.60671e-07
2.93133e-07
-2.20107e-07
3.40557e-07
-2.91131e-07
3.94264e-07
-3.75265e-07
-4.74782e-07
4.5494e-07
7.94853e-11
1.77005e-09
3.31883e-10
5.34717e-09
7.84502e-10
9.15358e-09
1.46908e-09
1.31579e-08
2.42252e-09
1.73178e-08
3.68772e-09
2.15777e-08
5.31455e-09
2.58672e-08
7.36096e-09
3.00991e-08
9.89424e-09
3.41662e-08
1.29924e-08
3.79393e-08
1.6746e-08
4.12635e-08
2.12597e-08
4.3955e-08
2.66544e-08
4.5797e-08
3.30694e-08
4.65353e-08
4.06647e-08
4.58738e-08
4.96233e-08
4.34682e-08
6.01544e-08
3.89208e-08
7.24953e-08
3.17727e-08
8.69143e-08
2.14974e-08
1.03712e-07
7.49263e-09
1.23225e-07
-1.09268e-08
1.4582e-07
-3.45361e-08
1.71901e-07
-6.4208e-08
2.019e-07
-1.00919e-07
2.36277e-07
-1.45751e-07
2.75507e-07
-1.999e-07
3.20075e-07
-2.64675e-07
3.70471e-07
-3.41528e-07
4.27191e-07
-4.31984e-07
-5.38425e-07
4.90834e-07
8.59908e-11
1.68406e-09
3.60695e-10
5.07247e-09
8.55448e-10
8.65883e-09
1.60647e-09
1.24069e-08
2.65562e-09
1.62686e-08
4.05129e-09
2.0182e-08
5.84936e-09
2.40692e-08
8.11437e-09
2.78341e-08
1.09207e-08
3.13598e-08
1.43543e-08
3.45057e-08
1.85141e-08
3.71038e-08
2.35138e-08
3.89553e-08
2.94842e-08
3.98266e-08
3.65749e-08
3.94446e-08
4.49569e-08
3.74918e-08
5.48251e-08
3.36e-08
6.64006e-08
2.73453e-08
7.99333e-08
1.824e-08
9.57038e-08
5.72693e-09
1.14025e-07
-1.08282e-08
1.35241e-07
-3.21429e-08
1.59729e-07
-5.90247e-08
1.87898e-07
-9.23764e-08
2.20178e-07
-1.33199e-07
2.57018e-07
-1.82591e-07
2.9887e-07
-2.41753e-07
3.46182e-07
-3.11986e-07
3.99385e-07
-3.94731e-07
4.58888e-07
-4.91487e-07
-6.04712e-07
5.25175e-07
9.16905e-11
1.59237e-09
3.86312e-10
4.77784e-09
9.19165e-10
8.12598e-09
1.7309e-09
1.15952e-08
2.86832e-09
1.51312e-08
4.38527e-09
1.8665e-08
6.34366e-09
2.21108e-08
8.81463e-09
2.53631e-08
1.18798e-08
2.82946e-08
1.5633e-08
3.07525e-08
2.01818e-08
3.25551e-08
2.56491e-08
3.3488e-08
3.21755e-08
3.33002e-08
3.99213e-08
3.16988e-08
4.90688e-08
2.83443e-08
5.98246e-08
2.28442e-08
7.24221e-08
1.47477e-08
8.71236e-08
3.53856e-09
1.04221e-07
-1.13707e-08
1.24038e-07
-3.06452e-08
1.46929e-07
-5.50338e-08
1.73278e-07
-8.53734e-08
2.03493e-07
-1.22592e-07
2.38001e-07
-1.67706e-07
2.77232e-07
-2.21822e-07
3.21608e-07
-2.86129e-07
3.71523e-07
-3.61902e-07
4.27338e-07
-4.50546e-07
4.89354e-07
-5.53504e-07
-6.73256e-07
5.57898e-07
9.68766e-11
1.49549e-09
4.09871e-10
4.46485e-09
9.78188e-10
7.55766e-09
1.84687e-09
1.07265e-08
3.06761e-09
1.39105e-08
4.69971e-09
1.70329e-08
6.81109e-09
1.99994e-08
9.47952e-09
2.26947e-08
1.2794e-08
2.49802e-08
1.68562e-08
2.66903e-08
2.17824e-08
2.76289e-08
2.77049e-08
2.75655e-08
3.47743e-08
2.62308e-08
4.31617e-08
2.33114e-08
5.30608e-08
1.84452e-08
6.469e-08
1.1215e-08
7.82949e-08
1.14284e-09
9.41492e-08
-1.23158e-08
1.12556e-07
-2.97778e-08
1.3385e-07
-5.19386e-08
1.58392e-07
-7.9576e-08
1.86571e-07
-1.13552e-07
2.18793e-07
-1.54814e-07
2.55472e-07
-2.04385e-07
2.97014e-07
-2.63365e-07
3.43799e-07
-3.32913e-07
3.96155e-07
-4.14258e-07
4.54342e-07
-5.08733e-07
5.18553e-07
-6.17714e-07
-7.43588e-07
5.88884e-07
1.01845e-10
1.39365e-09
4.32525e-10
4.13417e-09
1.0351e-09
6.95509e-09
1.95895e-09
9.80267e-09
3.26063e-09
1.26088e-08
5.00487e-09
1.52887e-08
7.26562e-09
1.77387e-08
1.01273e-08
1.9833e-08
1.36862e-08
2.14212e-08
1.80522e-08
2.23243e-08
2.33502e-08
2.23309e-08
2.97218e-08
2.11938e-08
3.73281e-08
1.86245e-08
4.63507e-08
1.42888e-08
5.69947e-08
7.8012e-09
6.94903e-08
-1.28064e-09
8.40945e-08
-1.34613e-08
1.01092e-07
-2.93134e-08
1.20797e-07
-4.9483e-08
1.43552e-07
-7.46938e-08
1.69726e-07
-1.05749e-07
1.99705e-07
-1.43532e-07
2.3389e-07
-1.88998e-07
2.72677e-07
-2.43173e-07
3.1644e-07
-3.07128e-07
3.65501e-07
-3.81975e-07
4.20106e-07
-4.68863e-07
4.80382e-07
-5.69009e-07
5.46418e-07
-6.8375e-07
-8.1511e-07
6.1794e-07
1.06882e-10
1.28677e-09
4.55396e-10
3.78565e-09
1.0924e-09
6.31808e-09
2.07158e-09
8.82349e-09
3.45434e-09
1.1226e-08
5.31078e-09
1.34323e-08
7.72089e-09
1.53286e-08
1.07758e-08
1.67781e-08
1.45792e-08
1.76179e-08
1.92489e-08
1.76546e-08
2.49185e-08
1.66613e-08
3.17394e-08
1.43729e-08
3.98826e-08
1.04814e-08
4.95406e-08
4.63085e-09
6.09295e-08
-3.58773e-09
7.42907e-08
-1.46418e-08
8.98919e-08
-2.90626e-08
1.08029e-07
-4.74506e-08
1.29025e-07
-7.04793e-08
1.5323e-07
-9.88981e-08
1.81013e-07
-1.33532e-07
2.12759e-07
-1.75278e-07
2.48857e-07
-2.25096e-07
2.89678e-07
-2.83994e-07
3.35554e-07
-3.53004e-07
3.86741e-07
-4.33161e-07
4.43377e-07
-5.255e-07
5.05409e-07
-6.3104e-07
5.72829e-07
-7.51171e-07
-8.87044e-07
6.44764e-07
1.12253e-10
1.17451e-09
4.79519e-10
3.41839e-09
1.15243e-09
5.64518e-09
2.18892e-09
7.78699e-09
3.6552e-09
9.75975e-09
5.62678e-09
1.14607e-08
8.18962e-09
1.27657e-08
1.14416e-08
1.35262e-08
1.54937e-08
1.35658e-08
2.04718e-08
1.26764e-08
2.65183e-08
1.06148e-08
3.3794e-08
7.09719e-09
4.24799e-08
1.7955e-09
5.2779e-08
-5.66822e-09
6.49179e-08
-1.57267e-08
7.91487e-08
-2.88726e-08
9.57497e-08
-4.56636e-08
1.15026e-07
-6.67268e-08
1.37308e-07
-9.2761e-08
1.62948e-07
-1.24538e-07
1.92315e-07
-1.629e-07
2.25788e-07
-2.08751e-07
2.63737e-07
-2.63045e-07
3.06504e-07
-3.2676e-07
3.54371e-07
-4.00872e-07
4.07518e-07
-4.86308e-07
4.65943e-07
-5.83925e-07
5.29357e-07
-6.94455e-07
5.97587e-07
-8.194e-07
-9.58403e-07
6.68946e-07
1.1819e-10
1.05632e-09
5.05811e-10
3.03077e-09
1.21723e-09
4.93376e-09
2.31462e-09
6.6896e-09
3.86896e-09
8.20541e-09
5.96111e-09
9.36854e-09
8.68306e-09
1.00438e-08
1.21393e-08
1.007e-08
1.64482e-08
9.25689e-09
2.17435e-08
7.38106e-09
2.81765e-08
4.18179e-09
3.59171e-08
-6.43371e-10
4.51559e-08
-7.44331e-09
5.61059e-08
-1.66182e-08
6.9004e-08
-2.86248e-08
8.41122e-08
-4.39807e-08
1.01718e-07
-6.32692e-08
1.22133e-07
-8.71419e-08
1.45692e-07
-1.16321e-07
1.7275e-07
-1.51595e-07
2.03669e-07
-1.93819e-07
2.38816e-07
-2.43897e-07
2.78537e-07
-3.02766e-07
3.23142e-07
-3.71365e-07
3.72862e-07
-4.50593e-07
4.27794e-07
-5.41239e-07
4.87796e-07
-6.43927e-07
5.52305e-07
-7.58964e-07
6.2063e-07
-8.87725e-07
-1.02775e-06
6.89974e-07
1.24887e-10
9.31438e-10
5.35035e-10
2.62062e-09
1.28852e-09
4.18028e-09
2.45173e-09
5.5264e-09
4.10037e-09
6.55676e-09
6.32066e-09
7.14826e-09
9.21056e-09
7.15386e-09
1.28811e-08
6.39943e-09
1.74579e-08
4.6801e-09
2.30827e-08
1.75628e-09
2.9915e-08
-2.6505e-09
3.81337e-08
-8.86207e-09
4.79387e-08
-1.72483e-08
5.95526e-08
-2.82321e-08
7.32215e-08
-4.22937e-08
8.9216e-08
-5.99752e-08
1.07831e-07
-8.18838e-08
1.29382e-07
-1.08694e-07
1.54207e-07
-1.41146e-07
1.82656e-07
-1.80044e-07
2.15082e-07
-2.26245e-07
2.51831e-07
-2.80647e-07
2.93225e-07
-3.4416e-07
3.39533e-07
-4.17673e-07
3.90939e-07
-5.01999e-07
4.47477e-07
-5.97777e-07
5.08951e-07
-7.054e-07
5.74706e-07
-8.24719e-07
6.43051e-07
-9.5607e-07
-1.09175e-06
7.0705e-07
1.32491e-10
7.98947e-10
5.67774e-10
2.18534e-09
1.36762e-09
3.38043e-09
2.6026e-09
4.29142e-09
4.35314e-09
4.80622e-09
6.71076e-09
4.79063e-09
9.77929e-09
4.08533e-09
1.36763e-08
2.50247e-09
1.85343e-08
-1.77992e-10
2.45029e-08
-4.21231e-09
3.17496e-08
-9.8972e-09
4.04619e-08
-1.75743e-08
5.08484e-08
-2.76349e-08
6.31404e-08
-4.05241e-08
7.7592e-08
-5.67454e-08
9.44808e-08
-7.6864e-08
1.14106e-07
-1.01509e-07
1.36787e-07
-1.31375e-07
1.62858e-07
-1.67216e-07
1.92659e-07
-2.09845e-07
2.26529e-07
-2.60116e-07
2.64789e-07
-3.18908e-07
3.07725e-07
-3.87095e-07
3.55562e-07
-4.6551e-07
4.08431e-07
-5.54868e-07
4.66337e-07
-6.55683e-07
5.29149e-07
-7.68213e-07
5.96606e-07
-8.92175e-07
6.68108e-07
-1.02757e-06
-1.171e-06
7.47366e-07
1.41111e-10
6.57837e-10
6.04449e-10
1.722e-09
1.45547e-09
2.52941e-09
2.7689e-09
2.97799e-09
4.62986e-09
2.94526e-09
7.13508e-09
2.28541e-09
1.03942e-08
8.26239e-10
1.4531e-08
-1.63434e-09
1.9685e-08
-5.33205e-09
2.6013e-08
-1.05403e-08
3.36904e-08
-1.75746e-08
4.29126e-08
-2.67965e-08
5.38962e-08
-3.86185e-08
6.68798e-08
-5.35078e-08
8.21245e-08
-7.199e-08
9.99124e-08
-9.46519e-08
1.20545e-07
-1.22142e-07
1.44341e-07
-1.5517e-07
1.71625e-07
-1.94501e-07
2.02727e-07
-2.40946e-07
2.37961e-07
-2.9535e-07
2.77615e-07
-3.58561e-07
3.21927e-07
-4.31408e-07
3.71063e-07
-5.14645e-07
4.25072e-07
-6.08877e-07
4.83888e-07
-7.145e-07
5.47324e-07
-8.31648e-07
6.15117e-07
-9.59968e-07
6.86774e-07
-1.09923e-06
-1.24569e-06
7.61463e-07
1.508e-10
5.07038e-10
6.45283e-10
1.22752e-09
1.55257e-09
1.62212e-09
2.95153e-09
1.57904e-09
4.9319e-09
9.64885e-10
7.59554e-09
-3.78229e-10
1.10577e-08
-2.63589e-09
1.54483e-08
-6.02492e-09
2.09134e-08
-1.07972e-08
2.76169e-08
-1.72438e-08
3.57412e-08
-2.56989e-08
4.54891e-08
-3.65444e-08
5.70841e-08
-5.02135e-08
7.07711e-08
-6.71947e-08
8.68156e-08
-8.80346e-08
1.05503e-07
-1.13339e-07
1.27133e-07
-1.43772e-07
1.52018e-07
-1.80056e-07
1.80474e-07
-2.22957e-07
2.12809e-07
-2.73281e-07
2.49307e-07
-3.31848e-07
2.90214e-07
-3.99469e-07
3.35712e-07
-4.76906e-07
3.85882e-07
-5.64815e-07
4.40681e-07
-6.63676e-07
4.99934e-07
-7.73754e-07
5.63297e-07
-8.95011e-07
6.30259e-07
-1.02693e-06
6.99911e-07
-1.16888e-06
-1.31656e-06
7.70774e-07
1.61574e-10
3.45465e-10
6.90331e-10
6.98762e-10
1.65905e-09
6.53396e-10
3.1507e-09
8.73881e-11
5.25956e-09
-1.14398e-09
8.09247e-09
-3.21114e-09
1.17701e-08
-6.31351e-09
1.64283e-08
-1.06831e-08
2.22194e-08
-1.65883e-08
2.93137e-08
-2.4338e-08
3.79002e-08
-3.42854e-08
4.81879e-08
-4.68321e-08
6.04061e-08
-6.24317e-08
7.48043e-08
-8.15929e-08
9.16505e-08
-1.04881e-07
1.1123e-07
-1.32918e-07
1.33838e-07
-1.66381e-07
1.59779e-07
-2.05996e-07
1.8935e-07
-2.52528e-07
2.22834e-07
-3.06764e-07
2.60479e-07
-3.69493e-07
3.02481e-07
-4.4147e-07
3.4895e-07
-5.23375e-07
3.99877e-07
-6.15742e-07
4.55124e-07
-7.18923e-07
5.14391e-07
-8.33021e-07
5.77169e-07
-9.57789e-07
6.4274e-07
-1.0925e-06
7.09992e-07
-1.23613e-06
-1.38407e-06
7.77507e-07
1.73407e-10
1.72058e-10
7.39499e-10
1.32672e-10
1.7747e-09
-3.81803e-10
3.366e-09
-1.50391e-09
5.61212e-09
-3.3901e-09
8.62474e-09
-6.22376e-09
1.25298e-08
-1.02185e-08
1.74686e-08
-1.5622e-08
2.35994e-08
-2.27192e-08
3.10983e-08
-3.18369e-08
4.016e-08
-4.33471e-08
5.09988e-08
-5.76709e-08
6.38483e-08
-7.52812e-08
7.89606e-08
-9.67051e-08
9.66041e-08
-1.22524e-07
1.17061e-07
-1.53374e-07
1.40619e-07
-1.8994e-07
1.67568e-07
-2.32945e-07
1.98185e-07
-2.83145e-07
2.32719e-07
-3.41299e-07
2.71377e-07
-4.08151e-07
3.14296e-07
-4.84389e-07
3.61505e-07
-5.70584e-07
4.12914e-07
-6.6715e-07
4.68283e-07
-7.74292e-07
5.27187e-07
-8.91924e-07
5.88987e-07
-1.01959e-06
6.52843e-07
-1.15636e-06
7.17588e-07
-1.30088e-06
-1.44844e-06
7.81955e-07
1.86245e-10
-1.41857e-11
7.92559e-10
-4.7364e-10
1.89898e-09
-1.48822e-09
3.59645e-09
-3.20139e-09
5.98802e-09
-5.78167e-09
9.19002e-09
-9.42575e-09
1.33333e-08
-1.43618e-08
1.85644e-08
-2.08531e-08
2.50469e-08
-2.92016e-08
3.29618e-08
-3.97518e-08
4.25089e-08
-5.28942e-08
5.39063e-08
-6.90683e-08
6.73902e-08
-8.87652e-08
8.32136e-08
-1.12528e-07
1.01643e-07
-1.40954e-07
1.22953e-07
-1.74685e-07
1.47422e-07
-2.14409e-07
1.75321e-07
-2.60844e-07
2.06899e-07
-3.14723e-07
2.4237e-07
-3.7677e-07
2.81892e-07
-4.47673e-07
3.25532e-07
-5.28029e-07
3.73245e-07
-6.18298e-07
4.24858e-07
-7.18763e-07
4.8003e-07
-8.29465e-07
5.38226e-07
-9.5012e-07
5.98722e-07
-1.08008e-06
6.60604e-07
-1.21824e-06
7.22722e-07
-1.363e-06
-1.5097e-06
7.83981e-07
1.99999e-10
-2.14184e-10
8.4918e-10
-1.12282e-09
2.03114e-09
-2.67018e-09
3.84069e-09
-5.01094e-09
6.38503e-09
-8.32601e-09
9.78493e-09
-1.28256e-08
1.41758e-08
-1.87527e-08
1.97091e-08
-2.63863e-08
2.65527e-08
-3.60452e-08
3.48922e-08
-4.80913e-08
4.4931e-08
-6.2933e-08
5.68899e-08
-8.10272e-08
7.1006e-08
-1.02881e-07
8.75307e-08
-1.29053e-07
1.06726e-07
-1.60148e-07
1.28857e-07
-1.96816e-07
1.54187e-07
-2.39739e-07
1.82963e-07
-2.8962e-07
2.15405e-07
-3.47164e-07
2.51685e-07
-4.1305e-07
2.91904e-07
-4.87891e-07
3.36059e-07
-5.72185e-07
3.84036e-07
-6.66275e-07
4.35575e-07
-7.70302e-07
4.9024e-07
-8.84129e-07
5.47413e-07
-1.00729e-06
6.06308e-07
-1.13898e-06
6.65981e-07
-1.27791e-06
7.2533e-07
-1.42235e-06
-1.5678e-06
7.83429e-07
2.14575e-10
-4.28758e-10
9.08955e-10
-1.8172e-09
2.17023e-09
-3.93145e-09
4.09697e-09
-6.93768e-09
6.80033e-09
-1.10294e-08
1.04052e-08
-1.64305e-08
1.50514e-08
-2.33989e-08
2.08942e-08
-3.22292e-08
2.81057e-08
-4.32567e-08
3.68749e-08
-5.68605e-08
4.74076e-08
-7.34657e-08
5.99257e-08
-9.35453e-08
7.46656e-08
-1.17621e-07
9.18746e-08
-1.46262e-07
1.11807e-07
-1.80081e-07
1.34716e-07
-2.19725e-07
1.60845e-07
-2.65868e-07
1.90415e-07
-3.19191e-07
2.23611e-07
-3.8036e-07
2.60559e-07
-4.49997e-07
3.01295e-07
-5.28627e-07
3.45755e-07
-6.16645e-07
3.9375e-07
-7.1427e-07
4.44936e-07
-8.21488e-07
4.98796e-07
-9.37989e-07
5.54653e-07
-1.06315e-06
6.11678e-07
-1.196e-06
6.68924e-07
-1.33516e-06
7.2536e-07
-1.47878e-06
-1.62265e-06
7.80212e-07
2.29853e-10
-6.58612e-10
9.71415e-10
-2.55876e-09
2.31517e-09
-5.27522e-09
4.3633e-09
-8.9858e-09
7.23069e-09
-1.38968e-08
1.10461e-08
-2.02459e-08
1.59529e-08
-2.83057e-08
2.21103e-08
-3.83865e-08
2.96934e-08
-5.08398e-08
3.88934e-08
-6.60606e-08
4.99176e-08
-8.44898e-08
6.29872e-08
-1.06615e-07
7.83358e-08
-1.3297e-07
9.62045e-08
-1.64131e-07
1.16837e-07
-2.00713e-07
1.40471e-07
-2.43359e-07
1.67327e-07
-2.92724e-07
1.97597e-07
-3.49461e-07
2.31425e-07
-4.14189e-07
2.68883e-07
-4.87455e-07
3.0995e-07
-5.69694e-07
3.54498e-07
-6.61192e-07
4.02264e-07
-7.62035e-07
4.52824e-07
-8.72049e-07
5.05601e-07
-9.90766e-07
5.59871e-07
-1.11742e-06
6.14782e-07
-1.25092e-06
6.69407e-07
-1.38978e-06
7.22798e-07
-1.53217e-06
-1.67417e-06
7.74322e-07
2.4571e-10
-9.04322e-10
1.03605e-09
-3.3491e-09
2.46479e-09
-6.70396e-09
4.6375e-09
-1.11585e-08
7.67258e-09
-1.69318e-08
1.17022e-08
-2.42755e-08
1.6873e-08