/*--------------------------------*- C++ -*----------------------------------*\
| =========                 |                                                 |
| \\      /  F ield         | foam-extend: Open Source CFD                    |
|  \\    /   O peration     | Version:     4.0                                |
|   \\  /    A nd           | Web:         http://www.foam-extend.org         |
|    \\/     M anipulation  |                                                 |
\*---------------------------------------------------------------------------*/
FoamFile
{
    version     2.0;
    format      ascii;
    class       volVectorField;
    location    "50";
    object      U;
}
// * * * * * * * * * * * * * * * * * * * * * * * * * * * * * * * * * * * * * //

dimensions      [0 1 -1 0 0 0 0];

internalField   nonuniform List<vector> 
36000
(
(-3.83521e-07 1.77428e-06 -2.54898e-25)
(-3.82579e-06 5.0362e-06 2.63178e-25)
(-1.09861e-05 8.1137e-06 0)
(-2.1924e-05 1.09978e-05 0)
(-3.66261e-05 1.36805e-05 -2.29433e-25)
(-5.50973e-05 1.61542e-05 -2.17798e-25)
(-7.7338e-05 1.84117e-05 0)
(-0.000103316 2.04466e-05 0)
(-0.000132963 2.22537e-05 0)
(-0.000166172 2.38286e-05 0)
(-0.000202797 2.51674e-05 0)
(-0.000242653 2.62671e-05 -3.0565e-25)
(-0.000285512 2.71251e-05 -6.24344e-28)
(-0.000331104 2.77391e-05 -2.67461e-25)
(-0.00037911 2.81066e-05 2.49754e-25)
(-0.000429169 2.82253e-05 -2.32323e-25)
(-0.000480866 2.80923e-05 4.33133e-25)
(-0.000533735 2.77037e-05 -2.01166e-25)
(-0.000587255 2.70544e-05 1.86464e-25)
(-0.000640842 2.61374e-05 5.1847e-25)
(-0.000693847 2.49435e-05 -1.39125e-28)
(-0.000745547 2.34607e-05 5.89584e-25)
(-0.000795134 2.16743e-05 -1.35839e-25)
(-0.000841712 1.95668e-05 -2.48566e-25)
(-0.000884282 1.71181e-05 -2.28049e-25)
(-0.000921734 1.43057e-05 0)
(-0.000952846 1.11053e-05 0)
(-0.000976282 7.48578e-06 0)
(-0.000990507 3.39425e-06 1.53333e-25)
(-0.000993709 -1.06488e-06 -2.77716e-25)
(-5.65146e-07 5.3457e-06 0)
(-4.30372e-06 1.51783e-05 0)
(-1.16911e-05 2.44606e-05 0)
(-2.27861e-05 3.31648e-05 9.68044e-25)
(-3.75757e-05 4.12667e-05 -2.26346e-25)
(-5.60647e-05 4.87425e-05 2.17777e-25)
(-7.82532e-05 5.55699e-05 0)
(-0.000104109 6.17296e-05 0)
(-0.000133564 6.72047e-05 -7.37695e-25)
(-0.000166509 7.19813e-05 6.91886e-25)
(-0.000202801 7.60473e-05 -6.52517e-25)
(-0.000242253 7.93929e-05 6.10191e-25)
(-0.000284637 8.20095e-05 2.86006e-25)
(-0.000329682 8.38892e-05 2.67537e-25)
(-0.000377068 8.50246e-05 4.9902e-25)
(-0.000426432 8.5408e-05 0)
(-0.000477358 8.50301e-05 -1.3003e-24)
(-0.000529377 8.38788e-05 -8.46259e-28)
(-0.000581964 8.19382e-05 1.49391e-24)
(-0.000634531 7.91871e-05 -1.03749e-24)
(-0.000686424 7.55978e-05 -6.40549e-25)
(-0.000736914 7.11338e-05 5.90855e-25)
(-0.000785188 6.57507e-05 -5.44118e-25)
(-0.000830343 5.9396e-05 1.00007e-24)
(-0.000871374 5.20092e-05 1.2533e-27)
(-0.000907163 4.35233e-05 8.35013e-25)
(-0.000936484 3.38674e-05 -1.14397e-24)
(-0.000958008 2.29626e-05 0)
(-0.000970252 1.07036e-05 0)
(-0.000971076 -2.92854e-06 0)
(-9.23496e-07 8.82777e-06 1.02609e-24)
(-5.24693e-06 2.50733e-05 6.76072e-27)
(-1.30826e-05 4.04186e-05 -1.52223e-24)
(-2.44878e-05 5.48173e-05 1.94301e-24)
(-3.94502e-05 6.82282e-05 -2.29817e-24)
(-5.79742e-05 8.06107e-05 -1.75352e-24)
(-8.00592e-05 9.1927e-05 3.31314e-24)
(-0.000105673 0.000102144 -1.56228e-24)
(-0.000134745 0.000111232 0)
(-0.00016717 0.000119168 0)
(-0.0002028 0.000125929 0)
(-0.00024145 0.000131499 0)
(-0.000282892 0.000135861 1.14916e-24)
(-0.00032685 0.000139002 -2.68179e-24)
(-0.000373006 0.000140908 2.0042e-24)
(-0.00042099 0.000141566 0)
(-0.000470383 0.000140958 8.69401e-25)
(-0.000520711 0.000139065 -8.06792e-25)
(-0.000571443 0.000135858 0)
(-0.000621982 0.000131302 0)
(-0.000671664 0.000125351 3.20794e-24)
(-0.00071975 0.000117944 -1.77551e-24)
(-0.000765415 0.000109007 0)
(-0.000807743 9.84534e-05 -8.82852e-28)
(-0.000845717 8.61837e-05 -9.20282e-25)
(-0.000878206 7.20883e-05 -8.4697e-25)
(-0.000903973 5.60527e-05 7.532e-25)
(-0.000921699 3.79538e-05 6.91947e-25)
(-0.000929947 1.76379e-05 0)
(-0.000926031 -5.01369e-06 1.67716e-24)
(-1.44759e-06 1.21639e-05 0)
(-6.62699e-06 3.4564e-05 0)
(-1.51191e-05 5.57403e-05 5.09496e-25)
(-2.69788e-05 7.5627e-05 -1.95331e-24)
(-4.21943e-05 9.41655e-05 3.70511e-24)
(-6.07692e-05 0.000111297 -2.63556e-24)
(-8.27013e-05 0.000126969 0)
(-0.000107957 0.000141131 0)
(-0.000136467 0.000153741 -2.22971e-24)
(-0.000168122 0.000164764 2.79206e-24)
(-0.000202777 0.000174167 -1.30961e-24)
(-0.000240243 0.000181923 -1.2337e-24)
(-0.000280291 0.000188009 2.30714e-24)
(-0.000322642 0.000192402 -2.15159e-24)
(-0.000366976 0.000195082 -1.00354e-24)
(-0.000412917 0.000196028 0)
(-0.000460041 0.000195215 -3.4939e-24)
(-0.000507865 0.000192612 -5.1551e-27)
(-0.000555847 0.000188179 3.0115e-24)
(-0.000603381 0.000181867 3.89531e-27)
(-0.000649787 0.000173609 2.0277e-27)
(-0.000694311 0.00016332 -1.76748e-27)
(-0.000736111 0.0001509 -1.09613e-24)
(-0.000774253 0.000136227 2.01872e-24)
(-0.000807701 0.000119166 0)
(-0.000835308 9.95653e-05 3.05751e-27)
(-0.000855822 7.72705e-05 3.0696e-24)
(-0.000867937 5.21042e-05 -1.40848e-24)
(-0.000870285 2.39631e-05 -3.79588e-24)
(-0.000859288 -7.51292e-06 -3.39042e-24)
(-2.12158e-06 1.53017e-05 1.56003e-24)
(-8.40268e-06 4.35054e-05 -3.22763e-24)
(-1.77404e-05 7.01961e-05 2.0529e-24)
(-3.01858e-05 9.52886e-05 1.9668e-24)
(-4.57273e-05 0.000118706 -1.86061e-24)
(-6.43668e-05 0.000140371 8.81828e-25)
(-8.60995e-05 0.000160211 -2.51562e-24)
(-0.00011089 0.000178163 6.32791e-24)
(-0.000138667 0.000194169 -7.37126e-25)
(-0.000169321 0.000208177 1.40862e-24)
(-0.000202704 0.000220145 -1.32315e-24)
(-0.000238625 0.000230034 1.23357e-24)
(-0.000276853 0.000237809 0)
(-0.000317106 0.000243439 0)
(-0.000359057 0.000246895 4.04971e-24)
(-0.000402325 0.000248146 -1.88158e-24)
(-0.000446477 0.000247158 1.74842e-24)
(-0.000491021 0.000243888 1.62468e-24)
(-0.000535401 0.000238284 -3.02318e-24)
(-0.000578997 0.000230278 -4.20054e-24)
(-0.000621111 0.000219787 1.29479e-24)
(-0.000660968 0.000206703 4.78688e-24)
(-0.000697706 0.000190895 -2.20454e-24)
(-0.000730368 0.000172212 1.33523e-26)
(-0.000757896 0.000150484 1.86379e-24)
(-0.00077912 0.000125522 -1.70461e-24)
(-0.000792779 9.71266e-05 -1.53852e-24)
(-0.000797577 6.51205e-05 1.88648e-26)
(-0.000792253 2.93626e-05 1.255e-24)
(-0.000771943 -1.06145e-05 2.26655e-24)
(-2.92537e-06 1.81951e-05 4.71504e-24)
(-1.05217e-05 5.17677e-05 -1.08269e-24)
(-2.08698e-05 8.35803e-05 0)
(-3.40154e-05 0.000113527 -9.94344e-25)
(-4.99463e-05 0.000141512 -4.7135e-24)
(-6.86611e-05 0.000167438 5.34978e-24)
(-9.01513e-05 0.000191214 2.54027e-24)
(-0.000114378 0.000212758 -1.58079e-24)
(-0.000141267 0.000231995 1.51191e-24)
(-0.000170706 0.000248859 -7.06087e-24)
(-0.000202544 0.000263291 3.97375e-24)
(-0.000236589 0.000275238 -1.24305e-24)
(-0.000272602 0.000284656 4.66024e-24)
(-0.000310299 0.000291499 -2.17563e-24)
(-0.000349345 0.000295728 -6.10156e-24)
(-0.000389353 0.000297301 3.78887e-24)
(-0.000429877 0.000296172 -3.52595e-24)
(-0.000470413 0.000292285 -6.74173e-27)
(-0.000510392 0.000285573 -1.53534e-24)
(-0.000549173 0.000275954 -1.41298e-24)
(-0.000586039 0.000263321 5.21076e-24)
(-0.000620193 0.000247545 -4.80529e-24)
(-0.000650748 0.00022847 0)
(-0.00067672 0.000205916 -2.04435e-24)
(-0.000697027 0.000179676 -1.87314e-24)
(-0.000710478 0.000149522 -3.45103e-24)
(-0.000715799 0.000115259 3.13714e-24)
(-0.000711706 7.66501e-05 0)
(-0.000697085 3.35308e-05 6.40221e-24)
(-0.000665403 -1.45196e-05 -1.16383e-24)
(-3.83549e-06 2.08046e-05 0)
(-1.29228e-05 5.92406e-05 0)
(-2.44173e-05 9.57163e-05 0)
(-3.83577e-05 0.000130105 -1.03882e-26)
(-5.47293e-05 0.000162291 6.65636e-24)
(-7.35263e-05 0.000192155 -5.38243e-24)
(-9.47341e-05 0.000219588 3.40941e-24)
(-0.000118309 0.000244486 -6.4222e-24)
(-0.000144171 0.000266756 -1.52085e-24)
(-0.000172204 0.000286314 -2.85205e-24)
(-0.000202253 0.000303083 2.67088e-24)
(-0.000234121 0.000316997 1.26108e-24)
(-0.000267563 0.000327993 1.21395e-26)
(-0.000302288 0.000336015 0)
(-0.000337954 0.000341007 -1.48763e-26)
(-0.000374161 0.000342915 1.90324e-24)
(-0.000410455 0.000341678 -1.76552e-24)
(-0.000446315 0.000337228 1.64399e-24)
(-0.000481154 0.000329481 6.12409e-24)
(-0.000514312 0.000318335 -1.04795e-26)
(-0.00054505 0.000303667 -2.63485e-24)
(-0.000572545 0.000285323 -2.41339e-24)
(-0.000595882 0.000263122 -7.91491e-27)
(-0.000614056 0.000236854 -2.08207e-24)
(-0.000625955 0.000206284 -3.79151e-24)
(-0.000630369 0.000171176 5.18977e-24)
(-0.000626015 0.000131285 -1.55502e-24)
(-0.000611581 8.63446e-05 -2.8487e-24)
(-0.00058626 3.61829e-05 -5.14733e-24)
(-0.000541286 -1.95006e-05 2.35504e-24)
(-4.82602e-06 2.30991e-05 -4.29506e-24)
(-1.55383e-05 6.58351e-05 0)
(-2.82831e-05 0.00010646 -4.25433e-24)
(-4.30901e-05 0.000144828 5.03714e-24)
(-5.99406e-05 0.000180798 -5.75065e-24)
(-7.88215e-05 0.000214234 7.26833e-24)
(-9.97101e-05 0.000245003 -6.87252e-24)
(-0.000122555 0.000272979 1.60468e-24)
(-0.000147269 0.00029805 3.03647e-24)
(-0.00017373 0.00032011 -1.00961e-26)
(-0.000201777 0.000339066 -5.40276e-24)
(-0.000231203 0.000354829 5.06064e-24)
(-0.000261758 0.000367322 -4.72214e-24)
(-0.000293142 0.000376471 -8.84105e-24)
(-0.000325001 0.000382205 6.17588e-24)
(-0.000356926 0.000384453 1.91469e-24)
(-0.000388446 0.00038314 -5.37297e-24)
(-0.000419025 0.000378179 -3.33721e-24)
(-0.000448058 0.000369471 -3.07312e-24)
(-0.000474861 0.000356896 8.57694e-24)
(-0.000498671 0.000340308 -2.6656e-24)
(-0.00051864 0.000319533 8.6576e-27)
(-0.000533831 0.000294362 -4.53694e-24)
(-0.000543207 0.000264571 8.29726e-24)
(-0.000545641 0.000229897 3.79199e-24)
(-0.000539895 0.00019007 -3.47225e-24)
(-0.000524663 0.000144823 3.12814e-26)
(-0.000498592 9.38704e-05 2.91414e-24)
(-0.000461438 3.70336e-05 5.2131e-24)
(-0.000401389 -2.58513e-05 -7.1233e-24)
(-5.86965e-06 2.5056e-05 4.36084e-24)
(-1.82963e-05 7.14855e-05 -5.63712e-24)
(-3.23612e-05 0.000115704 -4.30602e-24)
(-4.80823e-05 0.000157545 4.08146e-24)
(-6.54345e-05 0.000196846 3.8853e-24)
(-8.4395e-05 0.000233448 -1.82082e-24)
(-0.00010493 0.000267194 0)
(-0.000126977 0.000297939 0)
(-0.000150441 0.000325545 1.53492e-24)
(-0.000175188 0.000349888 2.88625e-24)
(-0.000201049 0.000370849 8.15717e-24)
(-0.000227808 0.000388323 -5.09469e-24)
(-0.000255203 0.000402209 -2.09916e-26)
(-0.000282925 0.000412417 4.46149e-24)
(-0.000310607 0.000418857 -2.08177e-24)
(-0.000337826 0.000421439 -3.87189e-24)
(-0.000364095 0.000420071 1.082e-23)
(-0.00038886 0.000414649 3.34147e-24)
(-0.000411493 0.000405055 1.47558e-26)
(-0.000431289 0.000391148 1.23036e-26)
(-0.000447463 0.00037276 -1.01319e-26)
(-0.000459139 0.000349703 2.46373e-24)
(-0.000465359 0.000321749 6.82009e-24)
(-0.000465065 0.000288641 3.81838e-26)
(-0.000457104 0.000250095 3.83862e-24)
(-0.000440207 0.000205814 -1.05908e-23)
(-0.000413048 0.000155509 -6.42059e-24)
(-0.000374194 9.89023e-05 2.79101e-26)
(-0.000324389 3.57914e-05 2.67966e-24)
(-0.000247653 -3.38917e-05 4.74012e-24)
(-6.9387e-06 2.66615e-05 -3.30998e-24)
(-2.11238e-05 7.61501e-05 5.70045e-24)
(-3.65432e-05 0.000123378 -2.19262e-24)
(-5.32003e-05 0.000168156 6.22859e-24)
(-7.10607e-05 0.000210302 -3.92117e-24)
(-9.00889e-05 0.000249632 -1.84762e-24)
(-0.000110237 0.000285968 -7.02957e-24)
(-0.000131429 0.00031914 6.6141e-24)
(-0.000153555 0.000348988 -3.13322e-24)
(-0.000176472 0.000375362 0)
(-0.000199996 0.000398122 -5.49969e-24)
(-0.000223899 0.000417139 5.14302e-24)
(-0.000247907 0.000432294 -2.42188e-24)
(-0.000271696 0.000443471 4.4938e-24)
(-0.000294886 0.000450562 2.08857e-24)
(-0.000317036 0.000453458 0)
(-0.000337642 0.000452045 3.07874e-26)
(-0.000356129 0.000446201 0)
(-0.000371849 0.000435786 2.61934e-26)
(-0.000384072 0.000420643 5.82566e-24)
(-0.000391992 0.000400589 5.40397e-24)
(-0.000394715 0.00037541 2.48552e-24)
(-0.000391254 0.000344858 -1.3742e-23)
(-0.00038053 0.000308655 2.18302e-26)
(-0.000361366 0.000266491 0)
(-0.000332474 0.000218049 7.1239e-24)
(-0.000292511 0.000163016 -5.82442e-27)
(-0.000239856 0.000101149 8.9554e-24)
(-0.000176875 3.21163e-05 0)
(-8.24278e-05 -4.312e-05 -4.84493e-24)
(-8.00612e-06 2.79108e-05 1.14564e-24)
(-2.39491e-05 7.98115e-05 2.33546e-24)
(-4.0722e-05 0.000129447 4.41546e-24)
(-5.83107e-05 0.000176609 -1.2591e-23)
(-7.66684e-05 0.000221092 5.94218e-24)
(-9.57438e-05 0.00026269 -5.63715e-24)
(-0.000115471 0.000301201 1.42061e-23)
(-0.000135757 0.000336433 -6.68935e-24)
(-0.000156476 0.000368199 6.30058e-24)
(-0.000177468 0.000396327 0)
(-0.000198532 0.000420652 0)
(-0.000219427 0.000441022 7.81274e-24)
(-0.000239862 0.000457292 6.38814e-27)
(-0.000259498 0.000469327 -4.53575e-24)
(-0.000277935 0.000476994 1.67304e-26)
(-0.000294714 0.000480163 -2.00181e-26)
(-0.000309311 0.000478699 -7.3218e-24)
(-0.00032113 0.000472457 3.40579e-24)
(-0.000329498 0.000461283 -3.14925e-24)
(-0.00033367 0.000445001 2.94549e-24)
(-0.000332817 0.000423405 -1.08281e-23)
(-0.000326019 0.000396263 -1.0053e-23)
(-0.00031227 0.00036331 4.6518e-24)
(-0.000290466 0.000324243 8.55187e-24)
(-0.000259419 0.000278735 -3.94065e-24)
(-0.000217827 0.000226449 -3.58085e-24)
(-0.000164354 0.000167055 0)
(-9.70438e-05 0.000100375 -5.97554e-24)
(-1.97125e-05 2.5112e-05 0)
(9.18049e-05 -5.35621e-05 7.29164e-24)
(-9.04641e-06 2.88073e-05 -2.25788e-24)
(-2.67039e-05 8.24748e-05 7.08213e-24)
(-4.47948e-05 0.000133914 -8.91362e-24)
(-6.32846e-05 0.000182897 -2.84996e-26)
(-8.21109e-05 0.000229197 4.02726e-24)
(-0.000101203 0.000272586 -9.51331e-24)
(-0.000120473 0.00031284 7.18289e-24)
(-0.000139807 0.000349741 0)
(-0.00015906 0.000383081 3.20587e-24)
(-0.000178051 0.000412661 -8.98431e-24)
(-0.000196561 0.000438291 0)
(-0.000214329 0.000459795 -1.0502e-23)
(-0.000231047 0.000477004 4.90486e-24)
(-0.000246352 0.000489759 -4.60312e-24)
(-0.000259826 0.000497903 -4.23499e-24)
(-0.000270989 0.000501282 7.93631e-24)
(-0.000279292 0.000499739 0)
(-0.000284118 0.000493114 3.45196e-24)
(-0.00028478 0.00048123 6.38211e-24)
(-0.000280503 0.00046389 -1.18468e-23)
(-0.00027044 0.000440873 5.47433e-24)
(-0.000253648 0.000411929 -5.07991e-24)
(-0.000229102 0.000376772 -4.67012e-24)
(-0.000195682 0.000335083 -4.30696e-24)
(-0.000152189 0.000286516 -2.11825e-26)
(-9.73166e-05 0.000230722 0)
(-2.97655e-05 0.00016735 -6.68848e-24)
(5.22913e-05 9.62043e-05 0)
(0.000145619 1.54026e-05 0)
(0.000274501 -6.65501e-05 4.95899e-24)
(-1.00363e-05 2.93621e-05 2.32709e-24)
(-2.93254e-05 8.41663e-05 -2.40444e-24)
(-4.8666e-05 0.000136814 -1.13386e-23)
(-6.80009e-05 0.000187059 1.07502e-23)
(-8.72483e-05 0.000234653 -1.01897e-23)
(-0.000106314 0.000279349 1.15878e-23)
(-0.000125086 0.000320899 -7.27838e-24)
(-0.000143426 0.000359065 1.37025e-23)
(-0.000161163 0.000393613 -6.43865e-24)
(-0.000178093 0.000424319 3.00685e-24)
(-0.000193976 0.000450971 2.82022e-24)
(-0.000208528 0.000473367 -5.32753e-24)
(-0.000221416 0.000491313 0)
(-0.000232255 0.000504624 4.62366e-24)
(-0.000240601 0.000513119 1.79403e-26)
(-0.000245949 0.000516621 8.04678e-24)
(-0.000247731 0.000514959 -7.47943e-24)
(-0.00024531 0.000507942 3.48437e-24)
(-0.000237969 0.000495378 -6.40716e-24)
(-0.000224921 0.000477052 1.18979e-23)
(-0.00020529 0.000452726 0)
(-0.000178118 0.000422133 0)
(-0.000142361 0.00038497 9.4011e-24)
(-9.68894e-05 0.000340901 4.32041e-24)
(-4.04988e-05 0.000289569 -7.98824e-24)
(2.81159e-05 0.000230613 -3.6953e-24)
(0.000110217 0.000163668 6.68763e-24)
(0.000207494 8.85298e-05 6.16825e-24)
(0.000316978 3.40949e-06 5.62234e-24)
(0.00046397 -8.26806e-05 -5.01689e-24)
(-1.09554e-05 2.95924e-05 -1.17056e-23)
(-3.17572e-05 8.49302e-05 2.40443e-24)
(-5.22492e-05 0.000138211 0)
(-7.23484e-05 0.000189171 0)
(-9.19506e-05 0.000237544 -8.26843e-24)
(-0.000110935 0.000283062 3.92686e-24)
(-0.000129162 0.000325458 0)
(-0.000146462 0.000364472 0)
(-0.000162638 0.000399848 -3.23993e-24)
(-0.000177459 0.000431339 9.18396e-24)
(-0.000190659 0.000458708 -2.9928e-26)
(-0.000201926 0.000481728 2.6912e-24)
(-0.000210899 0.000500183 -2.5194e-26)
(-0.000217164 0.000513862 -9.31743e-24)
(-0.00022025 0.000522561 8.72056e-24)
(-0.000219632 0.00052608 3.52101e-26)
(-0.000214716 0.000524225 3.74899e-24)
(-0.000204839 0.00051679 1.40159e-23)
(-0.000189268 0.00050356 -1.94577e-23)
(-0.000167188 0.000484305 0)
(-0.000137706 0.000458771 0)
(-9.9846e-05 0.000426674 1.03047e-23)
(-5.25507e-05 0.000387698 -4.74714e-24)
(5.31358e-06 0.000341497 4.39286e-24)
(7.49514e-05 0.000287699 -4.02378e-24)
(0.000157657 0.000225935 2.21907e-23)
(0.000254657 0.000155823 -1.36503e-26)
(0.000367549 7.7154e-05 -9.27222e-24)
(0.000493345 -1.18131e-05 5.33638e-26)
(0.000658791 -0.000101431 1.00891e-23)
(-1.17862e-05 2.95206e-05 -7.1227e-24)
(-3.39511e-05 8.48252e-05 9.82771e-24)
(-5.54688e-05 0.000138192 0)
(-7.62279e-05 0.000189343 -8.85208e-24)
(-9.60984e-05 0.000237994 4.15955e-24)
(-0.00011493 0.000283859 0)
(-0.000132551 0.000326651 3.74955e-24)
(-0.000148762 0.00036609 -3.52735e-24)
(-0.000163335 0.000401901 -3.27581e-24)
(-0.000176009 0.00043382 -3.07297e-24)
(-0.00018648 0.000461589 2.87834e-24)
(-0.000194402 0.000484952 -1.08228e-23)
(-0.000199383 0.000503667 1.0107e-23)
(-0.000200985 0.000517501 4.73484e-24)
(-0.000198712 0.000526231 -8.78045e-24)
(-0.00019201 0.000529636 3.4807e-26)
(-0.000180261 0.000527499 -7.59386e-24)
(-0.000162776 0.000519597 -7.02316e-24)
(-0.000138795 0.000505698 6.5088e-24)
(-0.000107482 0.000485555 6.05451e-24)
(-6.79244e-05 0.000458899 1.12293e-23)
(-1.91323e-05 0.000425434 -1.03402e-23)
(3.99591e-05 0.000384834 0)
(0.000110485 0.000336743 -8.79942e-24)
(0.000193642 0.000280783 -4.08444e-24)
(0.000290704 0.000216578 -3.66711e-24)
(0.000402854 0.000143732 1.02417e-23)
(0.000531621 6.20415e-05 -6.21969e-24)
(0.000673831 -3.03155e-05 -5.58124e-24)
(0.000857886 -0.000122673 5.15366e-24)
(-1.25156e-05 2.91739e-05 -2.3973e-24)
(-3.587e-05 8.39229e-05 2.50968e-24)
(-5.82663e-05 0.000136865 -2.38257e-24)
(-7.95623e-05 0.00018771 -2.25724e-24)
(-9.95988e-05 0.000236159 4.21436e-24)
(-0.000118193 0.000281911 1.2034e-23)
(-0.000135137 0.000324664 -1.50897e-23)
(-0.000150198 0.000364119 3.52731e-24)
(-0.000163111 0.000399983 -3.31126e-24)
(-0.000173578 0.000431966 1.24922e-23)
(-0.00018126 0.000459791 -1.16937e-23)
(-0.000185781 0.000483186 5.44072e-24)
(-0.000186717 0.000501888 -1.53017e-23)
(-0.000183596 0.000515647 -9.50872e-24)
(-0.000175893 0.000524215 1.77161e-23)
(-0.000163021 0.000527356 4.13587e-24)
(-0.000144332 0.000524827 -1.5338e-23)
(-0.000119112 0.000516392 1.42337e-23)
(-8.65744e-05 0.000501801 -6.58521e-24)
(-4.58636e-05 0.000480794 -6.12065e-24)
(3.95045e-06 0.000453089 3.87394e-26)
(6.38697e-05 0.000418383 0)
(0.000134964 0.000376341 4.83011e-24)
(0.000218364 0.000326604 0)
(0.000315251 0.00026879 8.14351e-24)
(0.000426871 0.000202521 5.04652e-26)
(0.000554345 0.000127392 0)
(0.000699157 4.32085e-05 4.53558e-26)
(0.000857825 -5.20389e-05 -5.66552e-24)
(0.00106053 -0.000146349 5.19156e-24)
(-1.3134e-05 2.85836e-05 0)
(-3.74846e-05 8.23064e-05 -2.50968e-24)
(-6.05926e-05 0.000134356 -7.20881e-24)
(-8.22827e-05 0.000184432 1.59217e-23)
(-0.000102363 0.000232225 -1.29106e-23)
(-0.000120616 0.000277419 -4.0222e-24)
(-0.000136796 0.000319702 1.14317e-23)
(-0.000150631 0.00035876 -3.60907e-24)
(-0.000161816 0.000394282 3.38391e-24)
(-0.000170017 0.000425965 -6.31562e-24)
(-0.000174859 0.000453511 5.90421e-24)
(-0.000175927 0.000476632 -5.5215e-24)
(-0.000172762 0.000495047 -4.81162e-26)
(-0.000164858 0.000508486 3.16999e-27)
(-0.000151652 0.000516688 4.48923e-24)
(-0.000132526 0.000519391 0)
(-0.000106802 0.000516344 7.68338e-24)
(-7.3735e-05 0.000507291 -7.12955e-24)
(-3.25168e-05 0.00049197 0)
(1.7731e-05 0.00047011 6.12028e-24)
(7.79548e-05 0.00044142 1.90032e-26)
(0.000149166 0.000405591 -5.24919e-24)
(0.000232436 0.000362286 -1.45487e-23)
(0.000328886 0.000311146 -8.95868e-24)
(0.000439673 0.000251789 0)
(0.000566004 0.000183845 -7.52987e-24)
(0.000708921 0.000106902 0)
(0.000869875 2.07728e-05 -6.31071e-24)
(0.00104499 -7.68165e-05 0)
(0.0012663 -0.000172304 -1.03227e-23)
(-1.36349e-05 2.77815e-05 0)
(-3.87735e-05 8.00625e-05 0)
(-6.24096e-05 0.000130799 0)
(-8.43328e-05 0.000179685 -9.20514e-24)
(-0.000104317 0.0002264 1.30168e-23)
(-0.000122107 0.000270622 -8.2092e-24)
(-0.000137416 0.000312027 3.88445e-24)
(-0.000149931 0.000350291 7.25891e-24)
(-0.000159309 0.000385091 0)
(-0.000165171 0.00041611 -6.41274e-24)
(-0.000167104 0.000443037 1.19258e-23)
(-0.000164653 0.000465568 -1.44011e-26)
(-0.00015732 0.00048341 -6.97779e-27)
(-0.000144561 0.000496277 -4.82017e-24)
(-0.000125775 0.00050389 4.52319e-24)
(-0.00010031 0.000505977 0)
(-6.74543e-05 0.00050227 -1.55709e-23)
(-2.64353e-05 0.000492503 1.4417e-23)
(2.35824e-05 0.000476403 -6.68024e-24)
(8.34982e-05 0.000453691 0)
(0.000154274 0.000424073 -5.71592e-24)
(0.000236927 0.000387235 5.2815e-24)
(0.000332528 0.000342844 4.84602e-24)
(0.000442182 0.000290545 4.44376e-24)
(0.000567016 0.000229967 0)
(0.00070817 0.000160751 7.61289e-24)
(0.000866612 8.24746e-05 0)
(0.00104375 -5.02741e-06 0)
(0.00123523 -0.000104368 5.92348e-24)
(0.00147502 -0.000200242 1.03328e-23)
(-1.40147e-05 2.67994e-05 0)
(-3.97231e-05 7.72784e-05 0)
(-6.36901e-05 0.000126331 0)
(-8.56696e-05 0.000173648 9.32171e-24)
(-0.000105399 0.000218902 8.8e-24)
(-0.000122583 0.000261766 -1.24849e-23)
(-0.000136893 0.00030191 3.92336e-24)
(-0.000147974 0.000339003 -7.30576e-24)
(-0.000155439 0.000372714 6.8787e-24)
(-0.000158866 0.000402717 -1.29203e-23)
(-0.000157799 0.00042869 2.06963e-26)
(-0.000151742 0.000450321 1.92584e-26)
(-0.000140155 0.000467303 5.2783e-24)
(-0.00012245 0.00047934 0)
(-9.79904e-05 0.000486141 -1.36005e-23)
(-6.60858e-05 0.000487424 8.44452e-24)
(-2.59908e-05 0.000482912 7.80125e-24)
(2.30981e-05 0.000472328 -7.28374e-24)
(8.20431e-05 0.000455395 6.74441e-24)
(0.000151765 0.000431828 -6.21876e-24)
(0.000233238 0.000401334 1.15015e-23)
(0.000327488 0.000363601 -5.31229e-24)
(0.000435574 0.000318304 0)
(0.000558581 0.000265099 1.80325e-23)
(0.000697578 0.000203633 -1.66372e-23)
(0.000853651 0.000133557 1.03979e-26)
(0.00102767 5.44518e-05 -7.00188e-24)
(0.00122096 -3.38238e-05 -6.38226e-24)
(0.00142866 -0.000134285 -5.79507e-24)
(0.0016867 -0.000229723 0)
(-1.42725e-05 2.56683e-05 0)
(-4.03259e-05 7.40398e-05 0)
(-6.4416e-05 0.000121087 4.94771e-24)
(-8.62597e-05 0.000166499 -9.388e-24)
(-0.000105557 0.000209948 -8.90526e-24)
(-0.000121971 0.000251103 1.25843e-23)
(-0.00013513 0.000289633 -3.974e-24)
(-0.000144635 0.000325204 -7.42204e-24)
(-0.000150054 0.00035748 3.49754e-24)
(-0.000150921 0.000386132 0)
(-0.000146734 0.000410831 1.21602e-23)
(-0.000136954 0.000431258 -1.13719e-23)
(-0.000120995 0.000447102 0)
(-9.82258e-05 0.000458056 0)
(-6.79702e-05 0.000463824 -4.59767e-24)
(-2.94988e-05 0.000464117 -8.53614e-24)
(1.79697e-05 0.000458653 7.91586e-24)
(7.52708e-05 0.000447151 7.28387e-24)
(0.000143294 0.000429331 -1.35322e-23)
(0.00022298 0.000404909 -6.2768e-24)
(0.000315317 0.000373595 5.79937e-24)
(0.000421329 0.000335087 -5.33781e-24)
(0.000542066 0.000289071 4.92637e-24)
(0.000678566 0.000235224 0)
(0.000831846 0.000173213 -1.26786e-26)
(0.00100291 0.000102713 2.29936e-23)
(0.0011925 2.33055e-05 -7.03019e-24)
(0.00140187 -6.51151e-05 0)
(0.00162555 -0.000166029 1.17505e-23)
(0.00190147 -0.000260167 -1.04165e-23)
(-1.44091e-05 2.44171e-05 0)
(-4.05791e-05 7.04277e-05 -1.06414e-23)
(-6.45753e-05 0.000115196 1.00454e-23)
(-8.60771e-05 0.000158413 4.79615e-24)
(-0.000104746 0.000199752 -9.02831e-24)
(-0.000120202 0.000238885 -4.21601e-24)
(-0.000132032 0.000275481 1.996e-23)
(-0.00013979 0.000309208 -1.8771e-23)
(-0.000142998 0.00033973 1.05838e-23)
(-0.000141145 0.000366718 6.613e-24)
(-0.000133683 0.000389841 6.17652e-24)
(-0.000120024 0.00040878 0)
(-9.95365e-05 0.000423219 -1.06683e-23)
(-7.15474e-05 0.00043285 9.9497e-24)
(-3.53356e-05 0.000437375 1.38201e-23)
(9.86775e-06 0.000436503 -8.64456e-24)
(6.48811e-05 0.00042995 5.6823e-26)
(0.000130573 0.000417436 -7.3521e-24)
(0.000207859 0.000398685 6.77289e-24)
(0.000297701 0.000373416 6.27713e-24)
(0.000401095 0.000341349 3.16899e-26)
(0.000519062 0.000302197 0)
(0.00065262 0.000255666 9.91664e-24)
(0.000802763 0.00020146 0)
(0.000970438 0.000139268 8.39169e-24)
(0.00115655 6.87971e-05 3.05506e-26)
(0.00136167 -1.03617e-05 7.03265e-24)
(0.00158693 -9.82698e-05 -2.6099e-26)
(0.00182624 -0.000198931 -2.34301e-23)
(0.00211948 -0.000290866 1.57142e-23)
(-1.44264e-05 2.30716e-05 0)
(-4.04827e-05 6.65159e-05 -1.07729e-23)
(-6.41597e-05 0.000108778 2.55229e-23)
(-8.50995e-05 0.000149553 -4.81574e-24)
(-0.000102924 0.000188519 0)
(-0.000117213 0.000225354 4.89494e-26)
(-0.000127506 0.000259732 1.61451e-23)
(-0.000133313 0.000291326 -1.51912e-23)
(-0.00013411 0.000319807 -7.04996e-24)
(-0.000129338 0.000344845 6.69944e-24)
(-0.000118402 0.000366118 -2.48102e-23)
(-0.000100666 0.000383307 2.89656e-23)
(-7.54512e-05 0.000396097 -2.15564e-23)
(-4.20391e-05 0.000404186 5.0049e-24)
(3.35419e-07 0.000407276 -9.29527e-24)
(5.24824e-05 0.00040508 8.62573e-24)
(0.000115258 0.000397319 8.07018e-24)
(0.000189563 0.000383717 -7.40032e-24)
(0.000276341 0.000364006 6.81745e-24)
(0.000376569 0.000337917 -6.32747e-24)
(0.000491249 0.000305183 2.09985e-26)
(0.000621383 0.000265539 0)
(0.000767951 0.00021872 -9.91253e-24)
(0.000931892 0.000164455 2.66865e-26)
(0.00111406 0.000102471 2.40772e-26)
(0.00131521 3.25095e-05 7.73197e-24)
(0.00153574 -4.58248e-05 -7.078e-24)
(0.00177662 -0.000132538 1.29419e-23)
(0.00203103 -0.00023221 1.18181e-23)
(0.00234079 -0.000321008 0)
(-1.43266e-05 2.16544e-05 1.05952e-23)
(-4.00374e-05 6.23699e-05 -2.74568e-24)
(-6.31621e-05 0.000101939 0)
(-8.33057e-05 0.000140067 -4.86276e-24)
(-0.000100051 0.000176437 0)
(-0.000112935 0.000210737 -4.32294e-24)
(-0.000121455 0.000242651 0)
(-0.000125073 0.00027186 -1.1459e-23)
(-0.00012322 0.000298045 -7.10008e-24)
(-0.000115289 0.000320884 2.02001e-23)
(-0.000100636 0.000340063 6.23766e-24)
(-7.85764e-05 0.000355269 -1.74804e-23)
(-4.83853e-05 0.000366197 3.68223e-26)
(-9.29652e-06 0.000372551 2.5251e-23)
(3.94991e-05 0.000374042 -3.09667e-26)
(9.88534e-05 0.000370391 -1.74516e-23)
(0.00016966 0.000361326 -8.03148e-24)
(0.000252853 0.000346585 0)
(0.000349398 0.00032591 6.87463e-24)
(0.000460285 0.000299052 6.36294e-24)
(0.000586508 0.000265765 -1.17767e-23)
(0.000729041 0.000225811 0)
(0.000888825 0.000178954 -1.00009e-23)
(0.00106672 0.000124962 -9.15935e-24)
(0.00126344 6.3601e-05 -8.42408e-24)
(0.00147957 -5.34201e-06 -7.70247e-24)
(0.00171528 -8.22508e-05 7.09894e-24)
(0.00197132 -0.000167066 -1.2935e-23)
(0.00224012 -0.000264989 3.17713e-26)
(0.00256525 -0.000349709 1.04326e-23)
(-1.41117e-05 2.01841e-05 0)
(-3.9243e-05 5.80448e-05 -3.33792e-26)
(-6.15736e-05 9.47738e-05 -1.57231e-23)
(-8.06722e-05 0.000130085 4.93298e-24)
(-9.60825e-05 0.000163675 0)
(-0.0001073 0.000195243 2.19855e-23)
(-0.000113778 0.000224484 -3.72127e-23)
(-0.000114934 0.000251095 7.77654e-24)
(-0.000110151 0.000274767 -1.44911e-23)
(-9.87772e-05 0.000295194 6.84222e-24)
(-8.01165e-05 0.000312072 0)
(-5.34379e-05 0.0003251 0)
(-1.79688e-05 0.000333987 -5.51252e-24)
(2.71038e-05 0.000338449 5.12072e-24)
(8.26335e-05 0.00033821 0)
(0.000149513 0.000333004 8.73627e-24)
(0.000228674 0.000322574 0)
(0.000321078 0.000306675 1.50369e-23)
(0.000427711 0.000285067 -6.95126e-24)
(0.000549563 0.000257525 0)
(0.000687613 0.000223831 -5.95707e-24)
(0.000842805 0.000183778 0)
(0.00101601 0.000137168 2.00405e-23)
(0.00120797 8.38119e-05 9.23431e-24)
(0.00141926 2.35236e-05 8.47958e-24)
(0.00165023 -4.38629e-05 0)
(0.00190074 -0.000118721 2.74033e-26)
(0.00217131 -0.000200922 6.50728e-24)
(0.00245352 -0.000296316 -1.18368e-23)
(0.00279244 -0.000376044 -1.04263e-23)
(-1.37824e-05 1.86755e-05 1.08571e-23)
(-3.80967e-05 5.35858e-05 -2.84674e-24)
(-5.93818e-05 8.73585e-05 -6.33252e-26)
(-7.71707e-05 0.000119721 1.49816e-23)
(-9.09687e-05 0.000150382 -1.42147e-23)
(-0.000100231 0.000179056 -4.42246e-24)
(-0.000104367 0.000205457 -4.66392e-26)
(-0.000102751 0.000229294 -4.27168e-26)
(-9.47202e-05 0.000250278 0)
(-7.95725e-05 0.000268119 -1.36817e-23)
(-5.6567e-05 0.000282529 1.91496e-23)
(-2.49237e-05 0.000293226 -1.19351e-23)
(1.61772e-05 0.000299934 1.10773e-23)
(6.75945e-05 0.000302387 -5.12126e-24)
(0.000130225 0.000300327 0)
(0.000205003 0.000293508 8.87674e-24)
(0.000292891 0.000281692 -4.67031e-26)
(0.000394877 0.000264654 -7.52417e-24)
(0.000511953 0.000242184 6.97278e-24)
(0.000645106 0.000214083 -6.45373e-24)
(0.000795294 0.000180165 2.37553e-23)
(0.000963405 0.000140262 -2.18917e-23)
(0.00115022 9.4218e-05 1.00889e-23)
(0.00135633 4.18963e-05 -3.70012e-23)
(0.00158211 -1.6838e-05 -1.6959e-23)
(0.00182763 -8.21002e-05 2.83347e-26)
(0.00209241 -0.000154255 1.42933e-23)
(0.00237662 -0.000233119 1.95088e-23)
(0.00267097 -0.000325197 -5.94968e-24)
(0.00302157 -0.000399091 0)
(-1.33381e-05 1.71395e-05 -1.09906e-23)
(-3.65915e-05 4.90279e-05 -6.89049e-26)
(-5.65679e-05 7.97562e-05 5.32973e-24)
(-7.27654e-05 0.000109066 5.02273e-24)
(-8.4652e-05 0.000136684 -2.39125e-23)
(-9.16428e-05 0.00016234 3.59915e-23)
(-9.31063e-05 0.000185768 -2.53549e-23)
(-8.83729e-05 0.000206698 3.96184e-23)
(-7.67339e-05 0.000224861 -1.48589e-23)
(-5.74408e-05 0.000239985 -2.07862e-23)
(-2.97066e-05 0.000251805 1.29748e-23)
(7.29588e-06 0.00026006 5.38391e-26)
(5.44324e-05 0.000264496 5.64298e-24)
(0.000112606 0.000264869 0)
(0.000182756 0.000260944 9.60421e-24)
(0.000265851 0.000252498 -8.86092e-24)
(0.000362884 0.000239318 1.64907e-23)
(0.000474854 0.00022121 -7.58882e-24)
(0.00060276 0.000197992 -7.01655e-24)
(0.000747574 0.000169497 -6.48e-24)
(0.000910212 0.00013558 -1.78491e-23)
(0.00109149 9.6113e-05 2.19743e-23)
(0.00129205 5.0993e-05 1.00948e-23)
(0.00151232 1.36633e-07 -7.30007e-26)
(0.00175241 -5.65325e-05 -3.17554e-26)
(0.00201207 -0.000119075 0)
(0.00229036 -0.000187844 4.19648e-26)
(0.00258697 -0.00026264 -2.60561e-23)
(0.00289203 -0.000350634 5.81638e-24)
(0.00325144 -0.000418014 -1.06524e-23)
(-1.27759e-05 1.55834e-05 1.31115e-26)
(-3.47154e-05 4.43967e-05 1.71688e-23)
(-5.3106e-05 7.2015e-05 0)