/*--------------------------------*- C++ -*----------------------------------*\
| =========                 |                                                 |
| \\      /  F ield         | foam-extend: Open Source CFD                    |
|  \\    /   O peration     | Version:     4.0                                |
|   \\  /    A nd           | Web:         http://www.foam-extend.org         |
|    \\/     M anipulation  |                                                 |
\*---------------------------------------------------------------------------*/
FoamFile
{
    version     2.0;
    format      ascii;
    class       volScalarField;
    location    "100";
    object      p;
}
// * * * * * * * * * * * * * * * * * * * * * * * * * * * * * * * * * * * * * //

dimensions      [0 2 -2 0 0 0 0];

internalField   nonuniform List<scalar> 
36000
(
-7.28071e-06
-7.3084e-06
-7.33782e-06
-7.36515e-06
-7.39075e-06
-7.41505e-06
-7.43808e-06
-7.45976e-06
-7.48004e-06
-7.4989e-06
-7.51634e-06
-7.53238e-06
-7.54703e-06
-7.56033e-06
-7.57232e-06
-7.58303e-06
-7.59248e-06
-7.60069e-06
-7.60765e-06
-7.61333e-06
-7.61765e-06
-7.62051e-06
-7.62176e-06
-7.62117e-06
-7.61846e-06
-7.61326e-06
-7.60512e-06
-7.59347e-06
-7.57751e-06
-7.55627e-06
-7.28884e-06
-7.3162e-06
-7.34529e-06
-7.37231e-06
-7.39762e-06
-7.42165e-06
-7.44443e-06
-7.46588e-06
-7.48593e-06
-7.50459e-06
-7.52184e-06
-7.53769e-06
-7.55218e-06
-7.56533e-06
-7.57718e-06
-7.58777e-06
-7.59712e-06
-7.60524e-06
-7.61212e-06
-7.61773e-06
-7.62201e-06
-7.62484e-06
-7.62608e-06
-7.62551e-06
-7.62284e-06
-7.6177e-06
-7.60966e-06
-7.59821e-06
-7.58236e-06
-7.56022e-06
-7.30492e-06
-7.33165e-06
-7.36007e-06
-7.38648e-06
-7.41123e-06
-7.43473e-06
-7.45701e-06
-7.47798e-06
-7.49759e-06
-7.51583e-06
-7.5327e-06
-7.5482e-06
-7.56236e-06
-7.57521e-06
-7.58679e-06
-7.59714e-06
-7.60626e-06
-7.61419e-06
-7.62091e-06
-7.62639e-06
-7.63057e-06
-7.63334e-06
-7.63456e-06
-7.63401e-06
-7.6314e-06
-7.62637e-06
-7.61854e-06
-7.60743e-06
-7.59182e-06
-7.56787e-06
-7.32873e-06
-7.35453e-06
-7.38197e-06
-7.40748e-06
-7.43139e-06
-7.4541e-06
-7.47563e-06
-7.4959e-06
-7.51486e-06
-7.53249e-06
-7.54878e-06
-7.56376e-06
-7.57743e-06
-7.58983e-06
-7.60099e-06
-7.61096e-06
-7.61975e-06
-7.62738e-06
-7.63384e-06
-7.63911e-06
-7.64313e-06
-7.6458e-06
-7.64696e-06
-7.64641e-06
-7.64388e-06
-7.639e-06
-7.63142e-06
-7.62079e-06
-7.60553e-06
-7.57892e-06
-7.35992e-06
-7.38451e-06
-7.41067e-06
-7.43501e-06
-7.45784e-06
-7.47952e-06
-7.50008e-06
-7.51943e-06
-7.53753e-06
-7.55434e-06
-7.56988e-06
-7.58414e-06
-7.59716e-06
-7.60895e-06
-7.61956e-06
-7.62901e-06
-7.63734e-06
-7.64456e-06
-7.65067e-06
-7.65564e-06
-7.65942e-06
-7.66191e-06
-7.66297e-06
-7.66239e-06
-7.65991e-06
-7.65518e-06
-7.64789e-06
-7.63781e-06
-7.62303e-06
-7.59283e-06
-7.39805e-06
-7.42118e-06
-7.44581e-06
-7.46873e-06
-7.49023e-06
-7.51067e-06
-7.53003e-06
-7.54826e-06
-7.5653e-06
-7.58111e-06
-7.59571e-06
-7.6091e-06
-7.62129e-06
-7.63232e-06
-7.64221e-06
-7.65101e-06
-7.65874e-06
-7.66543e-06
-7.67106e-06
-7.67562e-06
-7.67906e-06
-7.6813e-06
-7.68217e-06
-7.6815e-06
-7.67903e-06
-7.67441e-06
-7.6674e-06
-7.65792e-06
-7.64379e-06
-7.60883e-06
-7.44261e-06
-7.46406e-06
-7.48692e-06
-7.50821e-06
-7.52818e-06
-7.54716e-06
-7.56514e-06
-7.58205e-06
-7.59784e-06
-7.61248e-06
-7.62596e-06
-7.63829e-06
-7.6495e-06
-7.6596e-06
-7.66863e-06
-7.67662e-06
-7.68361e-06
-7.68962e-06
-7.69464e-06
-7.69867e-06
-7.70166e-06
-7.70351e-06
-7.7041e-06
-7.70325e-06
-7.70069e-06
-7.69612e-06
-7.68935e-06
-7.68047e-06
-7.66718e-06
-7.62601e-06
-7.49302e-06
-7.51262e-06
-7.53351e-06
-7.55297e-06
-7.57123e-06
-7.58858e-06
-7.605e-06
-7.62042e-06
-7.63479e-06
-7.64807e-06
-7.66027e-06
-7.67138e-06
-7.68143e-06
-7.69044e-06
-7.69844e-06
-7.70547e-06
-7.71156e-06
-7.71674e-06
-7.72101e-06
-7.72435e-06
-7.72674e-06
-7.72808e-06
-7.72825e-06
-7.72708e-06
-7.72433e-06
-7.71968e-06
-7.71306e-06
-7.70467e-06
-7.69248e-06
-7.64343e-06
-7.54867e-06
-7.56627e-06
-7.58504e-06
-7.60252e-06
-7.61892e-06
-7.63448e-06
-7.64918e-06
-7.66296e-06
-7.67574e-06
-7.68752e-06
-7.69827e-06
-7.708e-06
-7.71672e-06
-7.72447e-06
-7.73128e-06
-7.73717e-06
-7.7422e-06
-7.74638e-06
-7.74972e-06
-7.75222e-06
-7.75384e-06
-7.75449e-06
-7.75407e-06
-7.75243e-06
-7.74933e-06
-7.74448e-06
-7.73785e-06
-7.72971e-06
-7.71907e-06
-7.65967e-06
-7.60893e-06
-7.62443e-06
-7.64095e-06
-7.65634e-06
-7.67075e-06
-7.6844e-06
-7.69725e-06
-7.70924e-06
-7.7203e-06
-7.73041e-06
-7.73956e-06
-7.74775e-06
-7.75499e-06
-7.76131e-06
-7.76675e-06
-7.77134e-06
-7.77512e-06
-7.77812e-06
-7.78036e-06
-7.78182e-06
-7.78248e-06
-7.78226e-06
-7.78106e-06
-7.77877e-06
-7.77515e-06
-7.76987e-06
-7.76295e-06
-7.75485e-06
-7.74718e-06
-7.67169e-06
-7.67317e-06
-7.6865e-06
-7.7007e-06
-7.71391e-06
-7.72625e-06
-7.73787e-06
-7.74877e-06
-7.75885e-06
-7.76806e-06
-7.77637e-06
-7.78378e-06
-7.79027e-06
-7.79586e-06
-7.80059e-06
-7.80448e-06
-7.80759e-06
-7.80994e-06
-7.81157e-06
-7.8125e-06
-7.81273e-06
-7.81222e-06
-7.81092e-06
-7.80875e-06
-7.80557e-06
-7.8012e-06
-7.79522e-06
-7.78756e-06
-7.77906e-06
-7.77885e-06
-7.67559e-06
-7.74079e-06
-7.75192e-06
-7.76376e-06
-7.77473e-06
-7.78493e-06
-7.79447e-06
-7.80331e-06
-7.81138e-06
-7.81863e-06
-7.82503e-06
-7.83055e-06
-7.8352e-06
-7.83899e-06
-7.84195e-06
-7.84413e-06
-7.84557e-06
-7.8463e-06
-7.84637e-06
-7.84577e-06
-7.84455e-06
-7.84264e-06
-7.84003e-06
-7.83664e-06
-7.83235e-06
-7.82698e-06
-7.8201e-06
-7.81135e-06
-7.80111e-06
-7.81414e-06
-7.67686e-06
-7.81122e-06
-7.82016e-06
-7.82963e-06
-7.83835e-06
-7.84637e-06
-7.85377e-06
-7.86049e-06
-7.86648e-06
-7.87167e-06
-7.87604e-06
-7.87955e-06
-7.88221e-06
-7.88405e-06
-7.8851e-06
-7.88539e-06
-7.88498e-06
-7.8839e-06
-7.88217e-06
-7.87984e-06
-7.8769e-06
-7.87337e-06
-7.86921e-06
-7.86437e-06
-7.85873e-06
-7.85212e-06
-7.84414e-06
-7.83465e-06
-7.82368e-06
-7.82816e-06
-7.70228e-06
-7.88396e-06
-7.89075e-06
-7.89788e-06
-7.90436e-06
-7.91019e-06
-7.91541e-06
-7.91997e-06
-7.92381e-06
-7.92686e-06
-7.92909e-06
-7.93048e-06
-7.93103e-06
-7.93078e-06
-7.92976e-06
-7.928e-06
-7.92554e-06
-7.92242e-06
-7.91869e-06
-7.91437e-06
-7.90951e-06
-7.90413e-06
-7.8982e-06
-7.89168e-06
-7.88445e-06
-7.87635e-06
-7.86701e-06
-7.85661e-06
-7.84539e-06
-7.84229e-06
-7.72179e-06
-7.95859e-06
-7.96329e-06
-7.96814e-06
-7.9724e-06
-7.97605e-06
-7.97909e-06
-7.98145e-06
-7.98308e-06
-7.98392e-06
-7.98394e-06
-7.98311e-06
-7.98145e-06
-7.97898e-06
-7.97573e-06
-7.97173e-06
-7.96701e-06
-7.96164e-06
-7.95567e-06
-7.94918e-06
-7.94219e-06
-7.93474e-06
-7.92681e-06
-7.91837e-06
-7.90933e-06
-7.8995e-06
-7.88858e-06
-7.87691e-06
-7.86484e-06
-7.85783e-06
-7.73406e-06
-8.03477e-06
-8.03745e-06
-8.04009e-06
-8.04219e-06
-8.04369e-06
-8.04456e-06
-8.04473e-06
-8.04413e-06
-8.0427e-06
-8.04042e-06
-8.03729e-06
-8.03331e-06
-8.02847e-06
-8.0228e-06
-8.01634e-06
-8.00919e-06
-8.00139e-06
-7.99302e-06
-7.98415e-06
-7.97483e-06
-7.96509e-06
-7.95494e-06
-7.94437e-06
-7.93328e-06
-7.92152e-06
-7.90878e-06
-7.89554e-06
-7.8822e-06
-7.87275e-06
-7.74143e-06
-8.11222e-06
-8.113e-06
-8.11351e-06
-8.11351e-06
-8.11291e-06
-8.11164e-06
-8.10961e-06
-8.10676e-06
-8.10303e-06
-8.0984e-06
-8.09285e-06
-8.08638e-06
-8.07902e-06
-8.0708e-06
-8.06178e-06
-8.05204e-06
-8.04165e-06
-8.03069e-06
-8.01924e-06
-8.00738e-06
-7.99514e-06
-7.98257e-06
-7.96965e-06
-7.95632e-06
-7.94243e-06
-7.92767e-06
-7.91263e-06
-7.89773e-06
-7.88637e-06
-7.74487e-06
-8.1908e-06
-8.18977e-06
-8.18826e-06
-8.18623e-06
-8.18356e-06
-8.18016e-06
-8.17593e-06
-8.1708e-06
-8.16474e-06
-8.15769e-06
-8.14964e-06
-8.14062e-06
-8.13064e-06
-8.11976e-06
-8.10804e-06
-8.09556e-06
-8.08241e-06
-8.06868e-06
-8.05448e-06
-8.03988e-06
-8.02497e-06
-8.00978e-06
-7.99433e-06
-7.97857e-06
-7.96237e-06
-7.94542e-06
-7.92839e-06
-7.91169e-06
-7.89879e-06
-7.74477e-06
-8.27045e-06
-8.26772e-06
-8.26429e-06
-8.2603e-06
-8.25562e-06
-8.25012e-06
-8.24369e-06
-8.23628e-06
-8.22783e-06
-8.21832e-06
-8.20772e-06
-8.19606e-06
-8.18337e-06
-8.16972e-06
-8.15517e-06
-8.1398e-06
-8.12373e-06
-8.10708e-06
-8.08995e-06
-8.07246e-06
-8.05469e-06
-8.03672e-06
-8.01858e-06
-8.00024e-06
-7.98157e-06
-7.96228e-06
-7.94311e-06
-7.92444e-06
-7.91026e-06
-7.74148e-06
-8.35124e-06
-8.34691e-06
-8.34164e-06
-8.33577e-06
-8.32913e-06
-8.32156e-06
-8.31295e-06
-8.30324e-06
-8.29239e-06
-8.28035e-06
-8.26714e-06
-8.25277e-06
-8.23728e-06
-8.22074e-06
-8.20323e-06
-8.18485e-06
-8.16574e-06
-8.14601e-06
-8.12582e-06
-8.10529e-06
-8.08453e-06
-8.06364e-06
-8.04267e-06
-8.02161e-06
-8.00036e-06
-7.9786e-06
-7.95716e-06
-7.93637e-06
-7.92111e-06
-7.73537e-06
-8.43329e-06
-8.42745e-06
-8.42044e-06
-8.41275e-06
-8.40419e-06
-8.39457e-06
-8.38378e-06
-8.37177e-06
-8.35848e-06
-8.34389e-06
-8.32801e-06
-8.31086e-06
-8.29249e-06
-8.27296e-06
-8.25239e-06
-8.23089e-06
-8.20861e-06
-8.1857e-06
-8.16232e-06
-8.13862e-06
-8.11475e-06
-8.09082e-06
-8.06691e-06
-8.04304e-06
-8.01909e-06
-7.99476e-06
-7.97094e-06
-7.9479e-06
-7.93173e-06
-7.72684e-06
-8.51684e-06
-8.50956e-06
-8.50087e-06
-8.49141e-06
-8.48096e-06
-8.46931e-06
-8.45634e-06
-8.44201e-06
-8.42627e-06
-8.40909e-06
-8.39048e-06
-8.37049e-06
-8.34915e-06
-8.32656e-06
-8.30284e-06
-8.27813e-06
-8.25258e-06
-8.22639e-06
-8.19972e-06
-8.17276e-06
-8.14568e-06
-8.11861e-06
-8.09168e-06
-8.0649e-06
-8.03818e-06
-8.01117e-06
-7.98486e-06
-7.95943e-06
-7.9425e-06
-7.71639e-06
-8.60218e-06
-8.59352e-06
-8.58318e-06
-8.57198e-06
-8.55966e-06
-8.54599e-06
-8.53084e-06
-8.51417e-06
-8.49594e-06
-8.47612e-06
-8.45475e-06
-8.43185e-06
-8.40749e-06
-8.38176e-06
-8.35482e-06
-8.32681e-06
-8.29793e-06
-8.26837e-06
-8.23834e-06
-8.20804e-06
-8.17767e-06
-8.14741e-06
-8.11738e-06
-8.08761e-06
-8.05801e-06
-8.02822e-06
-7.9993e-06
-7.97132e-06
-7.95368e-06
-7.70459e-06
-8.68966e-06
-8.67963e-06
-8.66769e-06
-8.65476e-06
-8.64057e-06
-8.62486e-06
-8.60751e-06
-8.58848e-06
-8.56772e-06
-8.54524e-06
-8.52105e-06
-8.49519e-06
-8.46774e-06
-8.43882e-06
-8.4086e-06
-8.37724e-06
-8.34496e-06
-8.31197e-06
-8.27851e-06
-8.24482e-06
-8.21112e-06
-8.17761e-06
-8.14441e-06
-8.11157e-06
-8.079e-06
-8.04631e-06
-8.0146e-06
-7.98385e-06
-7.96535e-06
-7.69218e-06
-8.77967e-06
-8.76829e-06
-8.75472e-06
-8.74005e-06
-8.72397e-06
-8.7062e-06
-8.68663e-06
-8.6652e-06
-8.64189e-06
-8.6167e-06
-8.58963e-06
-8.56076e-06
-8.53018e-06
-8.49802e-06
-8.46447e-06
-8.42971e-06
-8.39398e-06
-8.35753e-06
-8.32061e-06
-8.2835e-06
-8.24642e-06
-8.20959e-06
-8.17315e-06
-8.13717e-06
-8.10152e-06
-8.06576e-06
-8.03104e-06
-7.99719e-06
-7.97735e-06
-7.68028e-06
-8.87263e-06
-8.85986e-06
-8.84465e-06
-8.8282e-06
-8.8102e-06
-8.79033e-06
-8.76849e-06
-8.74462e-06
-8.71871e-06
-8.69075e-06
-8.66077e-06
-8.62884e-06
-8.59509e-06
-8.55966e-06
-8.52273e-06
-8.48455e-06
-8.44534e-06
-8.4054e-06
-8.36501e-06
-8.32443e-06
-8.28393e-06
-8.24374e-06
-8.204e-06
-8.16478e-06
-8.12591e-06
-8.08689e-06
-8.04881e-06
-8.01148e-06
-7.98914e-06
-7.67058e-06
-8.96897e-06
-8.95476e-06
-8.93784e-06
-8.91956e-06
-8.89958e-06
-8.87756e-06
-8.85339e-06
-8.82703e-06
-8.79846e-06
-8.76768e-06
-8.73474e-06
-8.69973e-06
-8.66276e-06
-8.62402e-06
-8.58371e-06
-8.54207e-06
-8.49938e-06
-8.45593e-06
-8.41203e-06
-8.36797e-06
-8.32401e-06
-8.28041e-06
-8.2373e-06
-8.19473e-06
-8.15248e-06
-8.10995e-06
-8.06806e-06
-8.02661e-06
-7.99876e-06
-7.66373e-06
-9.06911e-06
-9.05338e-06
-9.03467e-06
-9.01448e-06
-8.99244e-06
-8.96819e-06
-8.94163e-06
-8.91272e-06
-8.88143e-06
-8.84779e-06
-8.81184e-06
-8.7737e-06
-8.73349e-06
-8.69141e-06
-8.64769e-06
-8.6026e-06
-8.55641e-06
-8.50945e-06
-8.46202e-06
-8.41444e-06
-8.36699e-06
-8.31992e-06
-8.27337e-06
-8.22733e-06
-8.18152e-06
-8.13523e-06
-8.08896e-06
-8.04178e-06
-7.99896e-06
-7.65333e-06
-9.17345e-06
-9.15611e-06
-9.13549e-06
-9.11329e-06
-9.08909e-06
-9.06254e-06
-9.03351e-06
-9.00196e-06
-8.96789e-06
-8.93133e-06
-8.89233e-06
-8.85102e-06
-8.80755e-06
-8.76212e-06
-8.71499e-06
-8.66642e-06
-8.61672e-06
-8.56622e-06
-8.51525e-06
-8.46413e-06
-8.41316e-06
-8.36256e-06
-8.31247e-06
-8.26286e-06
-8.21336e-06
-8.1632e-06
-8.11193e-06
-8.05601e-06
-7.97843e-06
-7.63617e-06
-9.28236e-06
-9.26327e-06
-9.24062e-06
-9.21629e-06
-9.18984e-06
-9.16088e-06
-9.12929e-06
-9.09503e-06
-9.05811e-06
-9.01856e-06
-8.97647e-06
-8.93195e-06
-8.88519e-06
-8.8364e-06
-8.78583e-06
-8.73378e-06
-8.68056e-06
-8.62652e-06
-8.57198e-06
-8.51729e-06
-8.46274e-06
-8.40854e-06
-8.35483e-06
-8.30156e-06
-8.24841e-06
-8.1948e-06
-8.13885e-06
-8.0747e-06
-7.95743e-06
-7.73234e-06
-9.39616e-06
-9.37517e-06
-9.35035e-06
-9.32375e-06
-9.29493e-06
-9.26345e-06
-9.22919e-06
-9.19214e-06
-9.15229e-06
-9.10971e-06
-9.06448e-06
-9.01673e-06
-8.96666e-06
-8.91448e-06
-8.86046e-06
-8.80491e-06
-8.74816e-06
-8.69055e-06
-8.63243e-06
-8.57412e-06
-8.5159e-06
-8.45798e-06
-8.40051e-06
-8.34351e-06
-8.28689e-06
-8.23076e-06
-8.17329e-06
-8.1157e-06
-8.02617e-06
-8.29048e-06
-9.5151e-06
-9.49207e-06
-9.4649e-06
-9.43589e-06
-9.40457e-06
-9.37046e-06
-9.33344e-06
-9.2935e-06
-9.25066e-06
-9.20498e-06
-9.15656e-06
-9.10554e-06
-9.05211e-06
-8.99652e-06
-8.93904e-06
-8.87999e-06
-8.81969e-06
-8.75849e-06
-8.69673e-06
-8.63471e-06
-8.57269e-06
-8.51088e-06
-8.44939e-06
-8.38827e-06
-8.32754e-06
-8.26768e-06
-8.2072e-06
-8.15264e-06
-8.07712e-06
-8.40888e-06
-9.63937e-06
-9.61413e-06
-9.58445e-06
-9.55289e-06
-9.51892e-06
-9.48206e-06
-9.44217e-06
-9.39926e-06
-9.35335e-06
-9.30451e-06
-9.25285e-06
-9.19852e-06
-9.14172e-06
-9.08269e-06
-9.02173e-06
-8.95915e-06
-8.89527e-06
-8.83044e-06
-8.76495e-06
-8.69911e-06
-8.63313e-06
-8.56716e-06
-8.50127e-06
-8.43546e-06
-8.36971e-06
-8.30449e-06
-8.23824e-06
-8.17857e-06
-8.09105e-06
-8.3664e-06
-9.7691e-06
-9.74148e-06
-9.70911e-06
-9.67484e-06
-9.6381e-06
-9.59836e-06
-9.5555e-06
-9.50952e-06
-9.46047e-06
-9.40841e-06
-9.35345e-06
-9.29577e-06
-9.23556e-06
-9.17309e-06
-9.10862e-06
-9.04248e-06
-8.97498e-06
-8.90643e-06
-8.83712e-06
-8.76729e-06
-8.69711e-06
-8.62666e-06
-8.55592e-06
-8.48479e-06
-8.41308e-06
-8.34111e-06
-8.26686e-06
-8.19708e-06
-8.09343e-06
-8.31728e-06
-9.90432e-06
-9.87415e-06
-9.83892e-06
-9.80178e-06
-9.76214e-06
-9.71941e-06
-9.67347e-06
-9.62434e-06
-9.57207e-06
-9.51672e-06
-9.45843e-06
-9.39736e-06
-9.33372e-06
-9.26775e-06
-9.19975e-06
-9.13e-06
-9.0588e-06
-8.98644e-06
-8.91316e-06
-8.83913e-06
-8.76447e-06
-8.68916e-06
-8.61305e-06
-8.53588e-06
-8.45734e-06
-8.37735e-06
-8.29344e-06
-8.21133e-06
-8.09193e-06
-8.26977e-06
-1.0045e-05
-1.00121e-05
-9.97385e-06
-9.9337e-06
-9.89101e-06
-9.84518e-06
-9.79607e-06
-9.74371e-06
-9.68814e-06
-9.62946e-06
-9.56778e-06
-9.50328e-06
-9.43617e-06
-9.36668e-06
-9.29509e-06
-9.22167e-06
-9.14668e-06
-9.07038e-06
-8.99293e-06
-8.91446e-06
-8.83497e-06
-8.75434e-06
-8.67228e-06
-8.58839e-06
-8.50209e-06
-8.41296e-06
-8.31817e-06
-8.22249e-06
-8.08789e-06
-8.22135e-06
-1.0191e-05
-1.01552e-05
-1.01138e-05
-1.00705e-05
-1.00246e-05
-9.9756e-06
-9.92322e-06
-9.86754e-06
-9.80863e-06
-9.74655e-06
-9.68145e-06
-9.61348e-06
-9.54286e-06
-9.4698e-06
-9.39456e-06
-9.31738e-06
-9.23848e-06
-9.15806e-06
-9.07622e-06
-8.993e-06
-8.90828e-06
-8.82181e-06
-8.73318e-06
-8.64181e-06
-8.54685e-06
-8.44756e-06
-8.34103e-06
-8.23097e-06
-8.08164e-06
-8.17218e-06
-1.03421e-05
-1.03033e-05
-1.02585e-05
-1.0212e-05
-1.01628e-05
-1.01105e-05
-1.00548e-05
-9.99572e-06
-9.9334e-06
-9.86789e-06
-9.79932e-06
-9.72784e-06
-9.65366e-06
-9.57698e-06
-9.498e-06
-9.41695e-06
-9.33399e-06
-9.24924e-06
-9.16273e-06
-9.07438e-06
-8.98397e-06
-8.8911e-06
-8.79526e-06
-8.6956e-06
-8.5911e-06
-8.48081e-06
-8.3617e-06
-8.23684e-06
-8.07328e-06
-8.12285e-06
-1.0498e-05
-1.04561e-05
-1.04078e-05
-1.03579e-05
-1.03054e-05
-1.02497e-05
-1.01905e-05
-1.0128e-05
-1.00623e-05
-9.99328e-06
-9.92121e-06
-9.84619e-06
-9.76839e-06
-9.688e-06
-9.6052e-06
-9.52014e-06
-9.43292e-06
-9.34359e-06
-9.25207e-06
-9.15818e-06
-9.06155e-06
-8.9617e-06
-8.85788e-06
-8.74914e-06
-8.63426e-06
-8.51222e-06
-8.37987e-06
-8.23989e-06
-8.06251e-06
-8.07332e-06
-1.06584e-05
-1.06132e-05
-1.05614e-05
-1.05079e-05
-1.0452e-05
-1.03928e-05
-1.03302e-05
-1.02642e-05
-1.0195e-05
-1.01225e-05
-1.00469e-05
-9.96825e-06
-9.88678e-06
-9.80261e-06
-9.71585e-06
-9.6266e-06
-9.5349e-06
-9.44068e-06
-9.34377e-06
-9.24385e-06
-9.14046e-06
-9.03293e-06
-8.92037e-06
-8.8017e-06
-8.67572e-06
-8.5411e-06
-8.39501e-06
-8.23974e-06
-8.04885e-06
-8.02314e-06
-1.08228e-05
-1.07742e-05
-1.07186e-05
-1.06616e-05
-1.06022e-05
-1.05395e-05
-1.04734e-05
-1.0404e-05
-1.03312e-05
-1.02552e-05
-1.0176e-05
-1.00937e-05
-1.00085e-05
-9.92043e-06
-9.82957e-06
-9.73594e-06
-9.63947e-06
-9.54001e-06
-9.43726e-06
-9.33079e-06
-9.22001e-06
-9.10409e-06
-8.98202e-06
-8.85265e-06
-8.71469e-06
-8.56684e-06
-8.40657e-06
-8.23586e-06
-8.03167e-06
-7.97168e-06
-1.09905e-05
-1.09385e-05
-1.08792e-05
-1.08185e-05
-1.07556e-05
-1.06894e-05
-1.06198e-05
-1.05468e-05
-1.04705e-05
-1.03909e-05
-1.03081e-05
-1.02222e-05
-1.01331e-05
-1.0041e-05
-9.9459e-06
-9.84764e-06
-9.7461e-06
-9.64099e-06
-9.53191e-06
-9.41833e-06
-9.29946e-06
-9.17439e-06
-9.042e-06
-8.90116e-06
-8.75046e-06
-8.58879e-06
-8.41393e-06
-8.2277e-06
-8.01035e-06
-7.91821e-06
-1.11611e-05
-1.11055e-05
-1.10424e-05
-1.09781e-05
-1.09116e-05
-1.08419e-05
-1.07688e-05
-1.06923e-05
-1.06124e-05
-1.05293e-05
-1.04428e-05
-1.03531e-05
-1.02602e-05
-1.01639e-05
-1.00643e-05
-9.96111e-06
-9.85413e-06
-9.74292e-06
-9.627e-06
-9.50564e-06
-9.37796e-06
-9.24294e-06
-9.0995e-06
-8.94634e-06
-8.78224e-06
-8.60622e-06
-8.41645e-06
-8.21468e-06
-7.98426e-06
-7.86189e-06
-1.13337e-05
-1.12746e-05
-1.12076e-05
-1.11396e-05
-1.10696e-05
-1.09964e-05
-1.09197e-05
-1.08397e-05
-1.07564e-05
-1.06697e-05
-1.05795e-05
-1.0486e-05
-1.0389e-05
-1.02884e-05
-1.01841e-05
-1.00757e-05
-9.96284e-06
-9.84506e-06
-9.72168e-06
-9.59187e-06
-9.45464e-06
-9.3089e-06
-9.15354e-06
-8.98734e-06
-8.80923e-06
-8.61842e-06
-8.41352e-06
-8.19625e-06
-7.95289e-06
-7.80192e-06
-1.15075e-05
-1.14448e-05
-1.1374e-05
-1.13024e-05
-1.12288e-05
-1.11521e-05
-1.1072e-05
-1.09886e-05
-1.09017e-05
-1.08114e-05
-1.07176e-05
-1.06202e-05
-1.0519e-05
-1.04139e-05
-1.03045e-05
-1.01905e-05
-1.00714e-05
-9.94652e-06
-9.81504e-06
-9.67607e-06
-9.5285e-06
-9.37129e-06
-9.20323e-06
-9.02331e-06
-8.83064e-06
-8.62468e-06
-8.40454e-06
-8.17197e-06
-7.91599e-06
-7.73824e-06
-1.16816e-05
-1.16154e-05
-1.15408e-05
-1.14656e-05
-1.13886e-05
-1.13084e-05
-1.12249e-05
-1.1138e-05
-1.10477e-05
-1.09538e-05
-1.08562e-05
-1.07548e-05
-1.06493e-05
-1.05395e-05
-1.04248e-05
-1.03048e-05
-1.01789e-05
-1.00463e-05
-9.90608e-06
-9.75717e-06
-9.59855e-06
-9.42904e-06
-9.2476e-06
-9.05335e-06
-8.84566e-06
-8.62431e-06
-8.38889e-06
-8.14133e-06
-7.87311e-06
-7.67095e-06
-1.18551e-05
-1.17854e-05
-1.1707e-05
-1.16283e-05
-1.15478e-05
-1.14643e-05
-1.13775e-05
-1.12873e-05
-1.11935e-05
-1.1096e-05
-1.09946e-05
-1.08891e-05
-1.07791e-05
-1.06643e-05
-1.05439e-05
-1.04176e-05
-1.02844e-05
-1.01434e-05
-9.99375e-06
-9.83418e-06
-9.66369e-06
-9.48115e-06
-9.28566e-06
-9.07656e-06
-8.8535e-06
-8.61662e-06
-8.366e-06
-8.10377e-06
-7.82361e-06
-7.59937e-06
-1.20268e-05
-1.19536e-05
-1.18716e-05
-1.17894e-05
-1.17057e-05
-1.16189e-05
-1.15289e-05
-1.14353e-05
-1.13381e-05
-1.12371e-05
-1.11319e-05
-1.10221e-05
-1.09075e-05
-1.07873e-05
-1.0661e-05
-1.05277e-05
-1.03867e-05
-1.02367e-05
-1.00769e-05
-9.90596e-06
-9.72284e-06
-9.52658e-06
-9.31647e-06
-9.09208e-06
-8.85339e-06
-8.60094e-06
-8.3353e-06
-8.0588e-06
-7.767e-06
-7.52277e-06
-1.21956e-05
-1.2119e-05
-1.20335e-05
-1.19479e-05
-1.1861e-05
-1.17712e-05
-1.16779e-05
-1.15812e-05
-1.14806e-05
-1.1376e-05
-1.12669e-05
-1.11528e-05
-1.10332e-05
-1.09074e-05
-1.07747e-05
-1.06341e-05
-1.04846e-05
-1.0325e-05
-1.01543e-05
-9.97125e-06
-9.77485e-06
-9.56428e-06
-9.33905e-06
-9.09904e-06
-8.8446e-06
-8.57666e-06
-8.29627e-06
-8.00599e-06
-7.70296e-06
-7.44079e-06
-1.23601e-05
-1.22804e-05
-1.21914e-05
-1.21027e-05
-1.20127e-05
-1.19199e-05
-1.18236e-05
-1.17237e-05
-1.16199e-05
-1.15116e-05
-1.13985e-05
-1.128e-05
-1.11552e-05
-1.10236e-05
-1.0884e-05
-1.07355e-05
-1.05769e-05
-1.04071e-05
-1.02248e-05
-1.00289e-05
-9.81861e-06
-9.59319e-06
-9.35246e-06
-9.09662e-06
-8.82642e-06
-8.54318e-06
-8.24843e-06
-7.94491e-06
-7.63114e-06
-7.35305e-06
-1.25192e-05
-1.24363e-05
-1.23441e-05
-1.22524e-05
-1.21596e-05
-1.20639e-05
-1.19647e-05
-1.18618e-05
-1.17547e-05
-1.16428e-05
-1.15257e-05
-1.14024e-05
-1.12723e-05
-1.11344e-05
-1.09876e-05
-1.08306e-05
-1.06624e-05
-1.04816e-05
-1.02871e-05
-1.00778e-05
-9.853e-06
-9.61231e-06
-9.35579e-06
-9.08404e-06
-8.7982e-06
-8.49998e-06
-8.19134e-06
-7.87519e-06
-7.55117e-06
-7.25882e-06
-1.26713e-05
-1.25855e-05
-1.24902e-05
-1.23957e-05
-1.23002e-05
-1.22019e-05
-1.20999e-05
-1.19941e-05
-1.18837e-05
-1.17683e-05
-1.16469e-05
-1.15189e-05
-1.13831e-05
-1.12386e-05
-1.1084e-05
-1.09181e-05
-1.07396e-05
-1.05473e-05
-1.03399e-05
-1.01166e-05
-9.87691e-06
-9.62062e-06
-9.34818e-06
-9.06056e-06
-8.75932e-06
-8.44656e-06
-8.1246e-06
-7.79652e-06
-7.46295e-06
-7.15794e-06
-1.2815e-05
-1.27265e-05
-1.26284e-05
-1.25313e-05
-1.24333e-05
-1.23325e-05
-1.22279e-05
-1.21192e-05
-1.20057e-05
-1.18866e-05
-1.1761e-05
-1.1628e-05
-1.14863e-05
-1.13347e-05
-1.11719e-05
-1.09965e-05
-1.08073e-05
-1.06027e-05
-1.0382e-05
-1.01443e-05
-9.88927e-06
-9.61719e-06
-9.3288e-06
-9.0255e-06
-8.70924e-06
-8.38248e-06
-8.04786e-06
-7.70869e-06
-7.36645e-06
-7.05037e-06
-1.29487e-05
-1.28578e-05
-1.27571e-05
-1.26576e-05
-1.25574e-05
-1.24542e-05
-1.23473e-05
-1.22358e-05
-1.21192e-05
-1.19964e-05
-1.18665e-05
-1.17282e-05
-1.15803e-05
-1.14213e-05
-1.12499e-05
-1.10645e-05
-1.08639e-05
-1.06467e-05
-1.04121e-05
-1.01596e-05
-9.88904e-06
-9.60108e-06
-9.29688e-06
-8.97821e-06
-8.64742e-06
-8.30731e-06
-7.96083e-06
-7.61152e-06
-7.26136e-06
-6.934e-06
-1.30709e-05
-1.29777e-05
-1.28747e-05
-1.27732e-05
-1.26709e-05
-1.25657e-05
-1.24565e-05
-1.23424e-05
-1.22227e-05
-1.20963e-05
-1.19618e-05
-1.18181e-05
-1.16636e-05
-1.14969e-05
-1.13164e-05
-1.11206e-05
-1.09081e-05
-1.06778e-05
-1.0429e-05
-1.01614e-05
-9.87522e-06
-9.57146e-06
-9.25169e-06
-8.9181e-06
-8.57339e-06
-8.22069e-06
-7.86324e-06
-7.50488e-06
-7.14703e-06
-6.80786e-06
-1.318e-05
-1.30848e-05
-1.29798e-05
-1.28764e-05
-1.27724e-05
-1.26654e-05
-1.2554e-05
-1.24375e-05
-1.23148e-05
-1.21846e-05
-1.20455e-05
-1.18962e-05
-1.17349e-05
-1.156e-05
-1.137e-05
-1.11633e-05
-1.09385e-05
-1.06948e-05
-1.04315e-05
-1.01486e-05
-9.84687e-06
-9.52753e-06
-9.19259e-06
-8.84463e-06
-8.48673e-06
-8.12228e-06
-7.75487e-06
-7.38828e-06
-7.0219e-06
-6.67367e-06
-1.32742e-05
-1.31774e-05
-1.30707e-05
-1.29658e-05
-1.28603e-05
-1.27516e-05
-1.26383e-05
-1.25194e-05
-1.23937e-05
-1.22597e-05
-1.2116e-05
-1.19608e-05
-1.17924e-05
-1.16091e-05
-1.14092e-05
-1.11912e-05
-1.09539e-05
-1.06964e-05
-1.04184e-05
-1.01203e-05
-9.80314e-06
-9.46855e-06
-9.11895e-06
-8.75733e-06
-8.38706e-06
-8.01181e-06
-7.63549e-06
-7.26099e-06
-6.88681e-06
-6.53202e-06
-1.3352e-05
-1.32538e-05
-1.31457e-05
-1.30396e-05
-1.29329e-05
-1.28228e-05
-1.27078e-05
-1.25867e-05
-1.2458e-05
-1.23202e-05
-1.21716e-05
-1.20104e-05
-1.18347e-05
-1.16426e-05
-1.14325e-05
-1.1203e-05
-1.09528e-05
-1.06814e-05
-1.03888e-05
-1.00756e-05
-9.74322e-06
-9.39385e-06
-9.03026e-06
-8.65576e-06
-8.27404e-06
-7.88908e-06
-7.50476e-06
-7.12205e-06
-6.74284e-06
-6.38225e-06
-1.34116e-05
-1.33124e-05
-1.32033e-05
-1.30964e-05
-1.29887e-05
-1.28775e-05
-1.27609e-05
-1.26376e-05
-1.25061e-05
-1.23645e-05
-1.22109e-05
-1.20435e-05
-1.18602e-05
-1.16591e-05
-1.14386e-05
-1.11972e-05
-1.0934e-05
-1.06487e-05
-1.03415e-05
-1.00134e-05
-9.66636e-06
-9.30283e-06
-8.92602e-06
-8.53955e-06
-8.14742e-06
-7.75383e-06
-7.36199e-06
-6.97167e-06
-6.5898e-06
-6.22397e-06
-1.34515e-05
-1.33516e-05
-1.32419e-05
-1.31343e-05
-1.30261e-05
-1.29139e-05
-1.2796e-05
-1.26707e-05
-1.25363e-05
-1.23908e-05
-1.22323e-05
-1.20585e-05
-1.18674e-05
-1.16571e-05
-1.14259e-05
-1.11726e-05
-1.08964e-05
-1.05972e-05
-1.02757e-05
-9.93315e-06
-9.57194e-06
-9.19498e-06
-8.80581e-06
-8.40839e-06
-8.00696e-06
-7.60574e-06
-7.20632e-06
-6.81096e-06
-6.42742e-06
-6.05664e-06
-7.52975e-06
-7.48956e-06
-7.44346e-06
-7.38591e-06
-7.31616e-06
-7.23205e-06
-7.13156e-06
-7.01125e-06
-6.87031e-06
-6.70586e-06
-6.51503e-06
-6.29545e-06
-6.04507e-06
-5.76229e-06
-5.44624e-06
-5.09695e-06
-4.71564e-06
-4.30486e-06
-3.86863e-06
-3.41257e-06
-2.94344e-06
-2.46931e-06
-1.9994e-06
-1.54305e-06
-1.10955e-06
-7.06873e-07
-3.41966e-07
-2.08318e-08
2.52932e-07
4.77516e-07
6.53156e-07
7.81839e-07
8.67072e-07
9.1349e-07
9.26442e-07
9.11642e-07
8.7482e-07
8.21548e-07
7.57025e-07
6.85995e-07
6.12568e-07
5.40135e-07
4.71195e-07
4.07444e-07
3.49704e-07
2.9832e-07
2.53037e-07
2.13618e-07
1.79323e-07
1.49899e-07
1.24313e-07
1.02676e-07
8.35612e-08
6.78191e-08
5.32295e-08
4.19152e-08
3.00559e-08
2.27986e-08
1.05396e-08
1.18522e-08
-7.53602e-06
-7.4945e-06
-7.44865e-06
-7.39118e-06
-7.32161e-06
-7.23768e-06
-7.13742e-06
-7.01769e-06
-6.87677e-06
-6.71253e-06
-6.52203e-06
-6.30279e-06
-6.05271e-06
-5.77021e-06
-5.45438e-06
-5.10526e-06
-4.72405e-06
-4.31329e-06
-3.877e-06
-3.42078e-06
-2.95142e-06
-2.47699e-06
-2.0067e-06
-1.54993e-06
-1.11597e-06
-7.12786e-07
-3.47379e-07
-2.5721e-08
2.48551e-07
4.73631e-07
6.49744e-07
7.78873e-07
8.64539e-07
9.11339e-07
9.24645e-07
9.10177e-07
8.73638e-07
8.20608e-07
7.56308e-07
6.85452e-07
6.12165e-07
5.39846e-07
4.7098e-07
4.0729e-07
3.4959e-07
2.98237e-07
2.52977e-07
2.13571e-07
1.79293e-07
1.4987e-07
1.24299e-07
1.02658e-07
8.35496e-08
6.77995e-08
5.32148e-08
4.19116e-08
3.00545e-08
2.27972e-08
1.05458e-08
1.18488e-08
-7.54828e-06
-7.5041e-06
-7.45877e-06
-7.40147e-06
-7.33225e-06
-7.2487e-06
-7.14889e-06
-7.02997e-06
-6.88952e-06
-6.72576e-06
-6.53587e-06
-6.31725e-06
-6.06778e-06
-5.78581e-06
-5.47044e-06
-5.12167e-06
-4.74068e-06
-4.32997e-06
-3.89357e-06
-3.43708e-06
-2.96726e-06
-2.49225e-06
-2.02124e-06
-1.56363e-06
-1.12876e-06
-7.2459e-07
-3.58168e-07
-3.54911e-08
2.39797e-07
4.65867e-07
6.4293e-07
7.72955e-07
8.59457e-07
9.07035e-07
9.21052e-07
9.07227e-07
8.71265e-07
8.18739e-07
7.54866e-07
6.84362e-07
6.11357e-07
5.39254e-07
4.70553e-07
4.06984e-07
3.49371e-07
2.9808e-07
2.52863e-07
2.13487e-07
1.79228e-07
1.4982e-07
1.24258e-07
1.02626e-07
8.35237e-08
6.77799e-08
5.31987e-08
4.18982e-08
3.00453e-08
2.27874e-08
1.05443e-08
1.18366e-08
-7.56614e-06
-7.51791e-06
-7.47342e-06
-7.41639e-06
-7.3477e-06
-7.26474e-06
-7.16563e-06
-7.04769e-06
-6.90814e-06
-6.7452e-06
-6.5562e-06
-6.33851e-06
-6.08992e-06
-5.80877e-06
-5.49409e-06
-5.14585e-06
-4.76518e-06
-4.35458e-06
-3.91804e-06
-3.46117e-06
-2.99069e-06
-2.51483e-06
-2.04279e-06
-1.58396e-06
-1.14774e-06
-7.42129e-07
-3.74215e-07
-5.0032e-08
2.2676e-07
4.54296e-07
6.32767e-07
7.64125e-07
8.51872e-07
9.00607e-07
9.15683e-07
9.0282e-07
8.67718e-07
8.15943e-07
7.52707e-07
6.82731e-07
6.10146e-07
5.38368e-07
4.69913e-07
4.06525e-07
3.49042e-07
2.97844e-07
2.52691e-07
2.13359e-07
1.79132e-07
1.49745e-07
1.24199e-07
1.02578e-07
8.3485e-08
6.77495e-08
5.31744e-08
4.18782e-08
3.00318e-08
2.27727e-08
1.05428e-08
1.18186e-08
-7.58895e-06
-7.53533e-06
-7.49206e-06
-7.4354e-06
-7.36744e-06
-7.28528e-06
-7.18711e-06
-7.07035e-06
-6.93204e-06
-6.7703e-06
-6.58251e-06
-6.36605e-06
-6.11866e-06
-5.8386e-06
-5.52485e-06
-5.17733e-06
-4.79714e-06
-4.38672e-06
-3.95005e-06
-3.49267e-06
-3.02141e-06
-2.54448e-06
-2.07109e-06
-1.6107e-06
-1.17272e-06
-7.65237e-07
-3.95375e-07
-6.92209e-08
2.09543e-07
4.39006e-07
6.19329e-07
7.52444e-07
8.41833e-07
8.92095e-07
9.08572e-07
8.96979e-07
8.63013e-07
8.12233e-07
7.49842e-07
6.80563e-07
6.08537e-07
5.37191e-07
4.69062e-07
4.05915e-07
3.48604e-07
2.9753e-07
2.52462e-07
2.1319e-07
1.79003e-07
1.49644e-07
1.24119e-07
1.02514e-07
8.34335e-08
6.77086e-08
5.31419e-08
4.18514e-08
3.00141e-08
2.27532e-08
1.0541e-08
1.17946e-08
-7.61596e-06
-7.55564e-06
-7.51404e-06
-7.45783e-06
-7.3908e-06
-7.30965e-06
-7.21269e-06
-7.09729e-06
-6.96055e-06
-6.80036e-06
-6.61413e-06
-6.39923e-06
-6.15334e-06
-5.87467e-06
-5.56212e-06
-5.21556e-06
-4.83601e-06
-4.42588e-06
-3.98911e-06
-3.53118e-06
-3.05903e-06
-2.58083e-06
-2.10584e-06
-1.64357e-06
-1.20348e-06
-7.93716e-07
-4.21484e-07
-9.29155e-08
1.88267e-07
4.20099e-07
6.02704e-07
7.37985e-07
8.29402e-07
8.8155e-07
8.99758e-07
8.89736e-07
8.57174e-07
8.07623e-07
7.4628e-07
6.77867e-07
6.06533e-07
5.35724e-07
4.68002e-07
4.05153e-07
3.48059e-07
2.97138e-07
2.52177e-07
2.12978e-07
1.78843e-07
1.49519e-07
1.2402e-07
1.02434e-07
8.33691e-08
6.76569e-08
5.31012e-08
4.18178e-08
2.9992e-08
2.27289e-08
1.05391e-08
1.17648e-08
-7.64639e-06
-7.57794e-06
-7.5386e-06
-7.48291e-06
-7.417e-06
-7.33708e-06
-7.24157e-06
-7.12775e-06
-6.99288e-06
-6.83459e-06
-6.65027e-06
-6.43727e-06
-6.19322e-06
-5.91625e-06
-5.60519e-06
-5.25983e-06
-4.88113e-06
-4.47145e-06
-4.03464e-06
-3.57623e-06
-3.10309e-06
-2.62349e-06
-2.14669e-06
-1.68227e-06
-1.23974e-06
-8.27336e-07
-4.52347e-07
-1.20951e-07
1.63071e-07
3.97693e-07
5.82991e-07
7.20831e-07
8.14649e-07
8.69029e-07
8.89286e-07
8.81125e-07
8.50226e-07
8.02134e-07
7.42035e-07
6.74651e-07
6.04142e-07
5.33972e-07
4.66734e-07
4.04243e-07
3.47406e-07
2.96668e-07
2.51835e-07
2.12725e-07
1.7865e-07
1.49369e-07
1.23901e-07
1.02339e-07
8.32919e-08
6.75947e-08
5.30523e-08
4.17775e-08
2.99658e-08
2.26998e-08
1.0537e-08
1.1729e-08
-7.67965e-06
-7.6012e-06
-7.56493e-06
-7.50981e-06
-7.44522e-06
-7.36675e-06
-7.27292e-06
-7.16098e-06
-7.0282e-06
-6.87214e-06
-6.69007e-06
-6.47931e-06
-6.23744e-06
-5.96251e-06
-5.65325e-06
-5.30939e-06
-4.93179e-06
-4.52273e-06
-4.08603e-06
-3.62719e-06
-3.15306e-06
-2.67199e-06
-2.19323e-06
-1.72644e-06
-1.2812e-06
-8.65834e-07
-4.87741e-07
-1.53139e-07
1.34115e-07
3.71922e-07
5.60301e-07
7.01077e-07
7.97652e-07
8.54597e-07
8.77209e-07
8.71187e-07
8.42202e-07
7.95788e-07
7.37121e-07
6.70924e-07
6.01368e-07
5.3194e-07
4.65262e-07
4.03186e-07
3.46647e-07
2.96122e-07
2.51437e-07
2.12429e-07
1.78426e-07
1.49195e-07
1.23763e-07
1.02227e-07
8.32019e-08
6.75218e-08
5.29953e-08
4.17304e-08
2.99352e-08
2.26659e-08
1.05347e-08