/*--------------------------------*- C++ -*----------------------------------*\
| =========                 |                                                 |
| \\      /  F ield         | foam-extend: Open Source CFD                    |
|  \\    /   O peration     | Version:     4.0                                |
|   \\  /    A nd           | Web:         http://www.foam-extend.org         |
|    \\/     M anipulation  |                                                 |
\*---------------------------------------------------------------------------*/
FoamFile
{
    version     2.0;
    format      ascii;
    class       surfaceScalarField;
    location    "100";
    object      phi;
}
// * * * * * * * * * * * * * * * * * * * * * * * * * * * * * * * * * * * * * //

dimensions      [0 3 -1 0 0 0 0];

internalField   nonuniform List<scalar> 
71520
(
-1.3341e-10
1.3401e-10
-5.9983e-13
-5.3919e-10
4.07571e-10
-1.79029e-12
-1.23951e-09
7.0335e-10
-3.03295e-12
-2.25699e-09
1.0218e-09
-4.3152e-12
-3.61462e-09
1.36325e-09
-5.62139e-12
-5.33563e-09
1.72794e-09
-6.93262e-12
-7.4434e-09
2.116e-09
-8.22654e-12
-9.96139e-09
2.52746e-09
-9.47731e-12
-1.2913e-08
2.96228e-09
-1.06552e-11
-1.63216e-08
3.42031e-09
-1.17267e-11
-2.02103e-08
3.90134e-09
-1.26542e-11
-2.4602e-08
4.40507e-09
-1.33959e-11
-2.95192e-08
4.93114e-09
-1.39059e-11
-3.49842e-08
5.47917e-09
-1.41342e-11
-4.10189e-08
6.04872e-09
-1.4027e-11
-4.76447e-08
6.63931e-09
-1.35261e-11
-5.48826e-08
7.25046e-09
-1.25693e-11
-6.27532e-08
7.88164e-09
-1.10897e-11
-7.12764e-08
8.53228e-09
-9.01521e-12
-8.04718e-08
9.20168e-09
-6.26787e-12
-9.0358e-08
9.88893e-09
-2.76297e-12
-1.00952e-07
1.05928e-08
1.59262e-12
-1.12271e-07
1.13114e-08
6.90261e-12
-1.24326e-07
1.20422e-08
1.32833e-11
-1.37128e-07
1.27812e-08
2.08651e-11
-1.50681e-07
1.3523e-08
2.97943e-11
-1.64981e-07
1.426e-08
4.02331e-11
-1.80015e-07
1.49812e-08
5.2359e-11
-1.95749e-07
1.5668e-08
6.63636e-11
1.62863e-08
-2.12118e-07
8.24556e-11
-1.31831e-10
2.65841e-10
-5.32863e-10
8.08603e-10
-1.22505e-09
1.39554e-09
-2.2308e-09
2.02755e-09
-3.57283e-09
2.70529e-09
-5.27412e-09
3.42923e-09
-7.35774e-09
4.19962e-09
-9.84681e-09
5.01653e-09
-1.27644e-08
5.87985e-09
-1.61333e-08
6.78927e-09
-1.99763e-08
7.74432e-09
-2.43156e-08
8.74438e-09
-2.91732e-08
9.78871e-09
-3.45705e-08
1.08764e-08
-4.05284e-08
1.20066e-08
-4.70673e-08
1.31782e-08
-5.4207e-08
1.43902e-08
-6.19667e-08
1.56413e-08
-7.03645e-08
1.69301e-08
-7.94181e-08
1.82552e-08
-8.91436e-08
1.96144e-08
-9.95558e-08
2.1005e-08
-1.10667e-07
2.24229e-08
-1.22487e-07
2.38623e-08
-1.35021e-07
2.5315e-08
-1.48268e-07
2.67695e-08
-1.62218e-07
2.82101e-08
-1.7685e-07
2.96139e-08
-1.92126e-07
3.09439e-08
3.21314e-08
-2.07971e-07
-1.28717e-10
3.94558e-10
-5.20377e-10
1.20026e-09
-1.19651e-09
2.07167e-09
-2.17906e-09
3.0101e-09
-3.49027e-09
4.0165e-09
-5.15256e-09
5.09152e-09
-7.18842e-09
6.23547e-09
-9.62029e-09
7.4484e-09
-1.24705e-08
8.73002e-09
-1.5761e-08
1.00798e-08
-1.95134e-08
1.14968e-08
-2.37491e-08
1.298e-08
-2.84884e-08
1.45281e-08
-3.37514e-08
1.61394e-08
-3.95571e-08
1.78124e-08
-4.59239e-08
1.9545e-08
-5.2869e-08
2.13353e-08
-6.04087e-08
2.3181e-08
-6.8558e-08
2.50794e-08
-7.73303e-08
2.70276e-08
-8.67374e-08
2.90215e-08
-9.67885e-08
3.10561e-08
-1.0749e-07
3.31242e-08
-1.18844e-07
3.52159e-08
-1.30846e-07
3.73175e-08
-1.43486e-07
3.94098e-08
-1.56744e-07
4.14674e-08
-1.70583e-07
4.34538e-08
-1.84953e-07
4.53132e-08
4.69405e-08
-1.99762e-07
-1.24143e-10
5.18702e-10
-5.02031e-10
1.57815e-09
-1.15456e-09
2.7242e-09
-2.10298e-09
3.95852e-09
-3.36881e-09
5.28233e-09
-4.97366e-09
6.69637e-09
-6.93913e-09
8.20094e-09
-9.28666e-09
9.79593e-09
-1.20374e-08
1.14808e-08
-1.52121e-08
1.32545e-08
-1.8831e-08
1.51156e-08
-2.29134e-08
1.70625e-08
-2.74781e-08
1.90927e-08
-3.25426e-08
2.12039e-08
-3.81233e-08
2.33931e-08
-4.42355e-08
2.56572e-08
-5.08929e-08
2.79926e-08
-5.81074e-08
3.03954e-08
-6.58891e-08
3.28611e-08
-7.42456e-08
3.53841e-08
-8.31819e-08
3.79578e-08
-9.26994e-08
4.05735e-08
-1.02795e-07
4.32197e-08
-1.1346e-07
4.58808e-08
-1.24678e-07
4.85357e-08
-1.36424e-07
5.11559e-08
-1.48661e-07
5.37038e-08
-1.61333e-07
5.61268e-08
-1.74369e-07
5.83483e-08
6.02223e-08
-1.8765e-07
-1.18221e-10
6.36923e-10
-4.78259e-10
1.93819e-09
-1.10016e-09
3.3461e-09
-2.00429e-09
4.86265e-09
-3.21118e-09
6.48922e-09
-4.74135e-09
8.22655e-09
-6.61524e-09
1.00748e-08
-8.85297e-09
1.20337e-08
-1.14742e-08
1.4102e-08
-1.4498e-08
1.62783e-08
-1.79426e-08
1.85602e-08
-2.18251e-08
2.0945e-08
-2.61617e-08
2.34293e-08
-3.09669e-08
2.60091e-08
-3.62537e-08
2.86799e-08
-4.20333e-08
3.14367e-08
-4.83145e-08
3.42738e-08
-5.51039e-08
3.71848e-08
-6.2405e-08
4.01622e-08
-7.02181e-08
4.31972e-08
-7.85393e-08
4.6279e-08
-8.73596e-08
4.93938e-08
-9.6664e-08
5.25241e-08
-1.0643e-07
5.56468e-08
-1.16626e-07
5.87312e-08
-1.27207e-07
6.17371e-08
-1.38115e-07
6.46119e-08
-1.49272e-07
6.72836e-08
-1.60574e-07
6.96506e-08
7.15181e-08
-1.7187e-07
-1.11091e-10
7.48015e-10
-4.49613e-10
2.27671e-09
-1.03457e-09
3.93106e-09
-1.88521e-09
5.71329e-09
-3.02083e-09
7.62484e-09
-4.46066e-09
9.66637e-09
-6.22364e-09
1.18378e-08
-8.32826e-09
1.41383e-08
-1.07924e-08
1.65661e-08
-1.36329e-08
1.91188e-08
-1.68656e-08
2.1793e-08
-2.05051e-08
2.45845e-08
-2.45641e-08
2.74883e-08
-2.90537e-08
3.04986e-08
-3.39824e-08
3.36087e-08
-3.93566e-08
3.68109e-08
-4.51794e-08
4.00967e-08
-5.14507e-08
4.34561e-08
-5.81662e-08
4.68778e-08
-6.53171e-08
5.03481e-08
-7.28889e-08
5.38508e-08
-8.08604e-08
5.73653e-08
-8.92021e-08
6.08658e-08
-9.78748e-08
6.43195e-08
-1.06827e-07
6.76838e-08
-1.15994e-07
7.09037e-08
-1.25291e-07
7.39087e-08
-1.34611e-07
7.66038e-08
-1.43822e-07
7.88611e-08
8.04139e-08
-1.52717e-07
-1.02918e-10
8.50933e-10
-4.16742e-10
2.59053e-09
-9.59242e-10
4.47356e-09
-1.74833e-09
6.50237e-09
-2.80186e-09
8.67837e-09
-4.13748e-09
1.1002e-08
-5.7724e-09
1.34727e-08
-7.72316e-09
1.6089e-08
-1.00054e-08
1.88483e-08
-1.26336e-08
2.1747e-08
-1.56208e-08
2.47801e-08
-1.89781e-08
2.79419e-08
-2.27148e-08
3.1225e-08
-2.68375e-08
3.46213e-08
-3.135e-08
3.81212e-08
-3.62526e-08
4.17136e-08
-4.15421e-08
4.53861e-08
-4.72104e-08
4.91244e-08
-5.32445e-08
5.29118e-08
-5.96249e-08
5.67286e-08
-6.6325e-08
6.05509e-08
-7.33096e-08
6.43498e-08
-8.05327e-08
6.8089e-08
-8.79364e-08
7.17232e-08
-9.54476e-08
7.5195e-08
-1.02975e-07
7.84313e-08
-1.10407e-07
8.13403e-08
-1.17603e-07
8.38003e-08
-1.24408e-07
8.5666e-08
8.65449e-08
-1.30539e-07
-9.38867e-11
9.4482e-10
-3.80371e-10
2.87702e-09
-8.758e-10
4.96899e-09
-1.59655e-09
7.22312e-09
-2.55882e-09
9.64065e-09
-3.77844e-09
1.22216e-08
-5.27059e-09
1.49649e-08
-7.04958e-09
1.7868e-08
-9.12855e-09
2.09273e-08
-1.15191e-08
2.41376e-08
-1.42311e-08
2.74921e-08
-1.72721e-08
3.09828e-08
-2.06469e-08
3.45999e-08
-2.43574e-08
3.83318e-08
-2.84018e-08
4.21656e-08
-3.27741e-08
4.60859e-08
-3.74634e-08
5.00755e-08
-4.24532e-08
5.41142e-08
-4.77203e-08
5.81789e-08
-5.32337e-08
6.2242e-08
-5.89533e-08
6.62706e-08
-6.48283e-08
7.02248e-08
-7.07948e-08
7.40555e-08
-7.67741e-08
7.77025e-08
-8.26692e-08
8.10901e-08
-8.83616e-08
8.41237e-08
-9.37077e-08
8.66864e-08
-9.85329e-08
8.86254e-08
-1.02658e-07
8.97915e-08
8.95985e-08
-1.05712e-07
-8.41931e-11
1.02901e-09
-3.41272e-10
3.1341e-09
-7.85986e-10
5.4137e-09
-1.43299e-09
7.87012e-09
-2.2966e-09
1.05043e-08
-3.39059e-09
1.33156e-08
-4.7279e-09
1.63022e-08
-6.32031e-09
1.94604e-08
-8.17813e-09
2.27851e-08
-1.03098e-08
2.62693e-08
-1.27216e-08
2.99039e-08
-1.54169e-08
3.36781e-08
-1.8396e-08
3.7579e-08
-2.16554e-08
4.15912e-08
-2.5187e-08
4.56972e-08
-2.8978e-08
4.98768e-08
-3.30091e-08
5.41066e-08
-3.72546e-08
5.83597e-08
-4.16803e-08
6.26046e-08
-4.62427e-08
6.68044e-08
-5.08872e-08
7.09151e-08
-5.55462e-08
7.48838e-08
-6.0137e-08
7.86463e-08
-6.45585e-08
8.2124e-08
-6.86884e-08
8.522e-08
-7.2379e-08
8.78144e-08
-7.54542e-08
8.97615e-08
-7.77058e-08
9.08771e-08
-7.89231e-08
9.10088e-08
8.93034e-08
-7.8628e-08
-7.40393e-11
1.10305e-09
-3.00239e-10
3.36029e-09
-6.9159e-10
5.80505e-09
-1.26084e-09
8.43937e-09
-2.02023e-09
1.12637e-08
-2.98126e-09
1.42766e-08
-4.15436e-09
1.74753e-08
-5.54853e-09
2.08546e-08
-7.17099e-09
2.44076e-08
-9.02671e-09
2.8125e-08
-1.11179e-08
3.19951e-08
-1.34437e-08
3.60039e-08
-1.59991e-08
4.01344e-08
-1.87748e-08
4.4367e-08
-2.17564e-08
4.86788e-08
-2.49232e-08
5.30436e-08
-2.82473e-08
5.74308e-08
-3.16929e-08
6.18052e-08
-3.52142e-08
6.61259e-08
-3.87545e-08
7.03447e-08
-4.22439e-08
7.44045e-08
-4.55975e-08
7.82373e-08
-4.87124e-08
8.17612e-08
-5.14649e-08
8.48765e-08
-5.37067e-08
8.74617e-08
-5.52601e-08
8.93678e-08
-5.59131e-08
9.04145e-08
-5.54203e-08
9.03843e-08
-5.35649e-08
8.91534e-08
8.54467e-08
-4.97082e-08
-6.36248e-11
1.16668e-09
-2.58062e-10
3.55473e-09
-5.94389e-10
6.14138e-09
-1.08327e-09
8.92825e-09
-1.73471e-09
1.19151e-08
-2.5577e-09
1.50996e-08
-3.55994e-09
1.84775e-08
-4.74743e-09
2.20421e-08
-6.12398e-09
2.57842e-08
-7.69079e-09
2.96918e-08
-9.44585e-09
3.37502e-08
-1.13834e-08
3.79414e-08
-1.3493e-08
4.22441e-08
-1.57594e-08
4.66333e-08
-1.81609e-08
5.10803e-08
-2.06689e-08
5.55515e-08
-2.32462e-08
6.00082e-08
-2.58465e-08
6.44055e-08
-2.84118e-08
6.86912e-08
-3.08715e-08
7.28045e-08
-3.31404e-08
7.66733e-08
-3.51154e-08
8.02123e-08
-3.66735e-08
8.33193e-08
-3.76679e-08
8.5871e-08
-3.79239e-08
8.77178e-08
-3.7234e-08
8.86779e-08
-3.53494e-08
8.85299e-08
-3.19618e-08
8.69967e-08
-2.68896e-08
8.40812e-08
7.80519e-08
-1.94948e-08
-5.31403e-11
1.21982e-09
-2.15492e-10
3.71708e-09
-4.96083e-10
6.42197e-09
-9.03348e-10
9.33552e-09
-1.44484e-09
1.24566e-08
-2.1269e-09
1.57817e-08
-2.95427e-09
1.93049e-08
-3.92968e-09
2.30175e-08
-5.05333e-09
2.69078e-08
-6.32236e-09
3.09608e-08
-7.73024e-09
3.51581e-08
-9.26604e-09
3.94772e-08
-1.09138e-08
4.38918e-08
-1.26514e-08
4.8371e-08
-1.445e-08
5.28789e-08
-1.62724e-08
5.73739e-08
-1.8072e-08
6.18077e-08
-1.97911e-08
6.61246e-08
-2.13595e-08
7.02596e-08
-2.26927e-08
7.41377e-08
-2.36893e-08
7.76699e-08
-2.42287e-08
8.07517e-08
-2.41669e-08
8.32575e-08
-2.33335e-08
8.50376e-08
-2.15271e-08
8.59114e-08
-1.85111e-08
8.56619e-08
-1.40123e-08
8.4031e-08
-7.71025e-09
8.06947e-08
1.21549e-09
7.51555e-08
6.75e-08
1.17674e-08
-4.27599e-11
1.26258e-09
-1.73219e-10
3.84754e-09
-3.98231e-10
6.64698e-09
-7.23858e-10
9.66114e-09
-1.15506e-09
1.28878e-08
-1.69531e-09
1.63219e-08
-2.34623e-09
1.99558e-08
-3.10706e-09
2.37783e-08
-3.97415e-09
2.77749e-08
-4.94035e-09
3.1927e-08
-5.99431e-09
3.6212e-08
-7.11975e-09
4.06026e-08
-8.29466e-09
4.50667e-08
-9.49024e-09
4.95666e-08
-1.06697e-08
5.40584e-08
-1.17872e-08
5.84913e-08
-1.27859e-08
6.28065e-08
-1.35971e-08
6.69358e-08
-1.41381e-08
7.08006e-08
-1.43102e-08
7.43099e-08
-1.3996e-08
7.73557e-08
-1.3056e-08
7.98117e-08
-1.13259e-08
8.15274e-08
-8.61186e-09
8.23235e-08
-4.68646e-09
8.1986e-08
7.16972e-10
8.02585e-08
7.91162e-09
7.68364e-08
1.72571e-08
7.13492e-08
2.91535e-08
6.32591e-08
5.24475e-08
4.42059e-08
-3.2634e-11
1.29521e-09
-1.31842e-10
3.94675e-09
-3.02197e-10
6.81734e-09
-5.47262e-10
9.90621e-09
-8.69257e-10
1.32098e-08
-1.26866e-09
1.67213e-08
-1.74374e-09
2.04309e-08
-2.29006e-09
2.43247e-08
-2.89991e-09
2.83847e-08
-3.56161e-09
3.25887e-08
-4.25881e-09
3.69092e-08
-4.96964e-09
4.13134e-08
-5.66583e-09
4.57629e-08
-6.3114e-09
5.02121e-08
-6.86143e-09
5.46085e-08
-7.26084e-09
5.88907e-08
-7.44286e-09
6.29885e-08
-7.32758e-09
6.68205e-08
-6.81984e-09
7.02928e-08
-5.80604e-09
7.32961e-08
-4.15238e-09
7.57021e-08
-1.70116e-09
7.73605e-08
1.7326e-09
7.80936e-08
6.36557e-09
7.76906e-08
1.2451e-08
7.59005e-08
2.02848e-08
7.24247e-08
3.02128e-08
6.69084e-08
4.26401e-08
5.89219e-08
5.79745e-08
4.79248e-08
3.34846e-08
7.69374e-08
-2.28845e-11
1.3181e-09
-9.18507e-11
4.01571e-09
-2.09096e-10
6.93458e-09
-3.75582e-10
1.00727e-08
-5.90663e-10
1.34249e-08
-8.51666e-10
1.69824e-08
-1.15338e-09
2.07326e-08
-1.48751e-09
2.46588e-08
-1.84201e-09
2.87392e-08
-2.20048e-09
3.29472e-08
-2.54141e-09
3.72501e-08
-2.83723e-09
4.16093e-08
-3.05286e-09
4.59785e-08
-3.14469e-09
5.0304e-08
-3.05954e-09
5.45233e-08
-2.73338e-09
5.85646e-08
-2.08949e-09
6.23446e-08
-1.03642e-09
6.57674e-08
5.34457e-10
6.8722e-08
2.75116e-09
7.10794e-08
5.76388e-09
7.26893e-08
9.74853e-09
7.33758e-08
1.49105e-08
7.29317e-08
2.14891e-08
7.1112e-08
2.9763e-08
6.76266e-08
4.00566e-08
6.21311e-08
5.27468e-08
5.42182e-08
6.82699e-08
4.33987e-08
8.7103e-08
2.90917e-08
1.06306e-08
1.09957e-07
-1.36043e-11
1.3317e-09
-5.36241e-11
4.05573e-09
-1.198e-10
7.00076e-09
-2.10384e-10
1.01633e-08
-3.21751e-10
1.35362e-08
-4.47945e-10
1.71085e-08
-5.80152e-10
2.08648e-08
-7.06092e-10
2.47847e-08
-8.09322e-10
2.88425e-08
-8.68477e-10
3.30064e-08
-8.5646e-10
3.72381e-08
-7.39269e-10
4.14921e-08
-4.75039e-10
4.57143e-08
-1.29159e-11
4.98418e-08
7.08368e-10
5.3802e-08
1.7623e-09
5.75106e-08
3.23632e-09
6.08706e-08
5.2338e-09
6.37699e-08
7.87643e-09
6.60793e-08
1.13069e-08
6.76489e-08
1.56917e-08
6.83045e-08
2.1225e-08
6.78425e-08
2.81323e-08
6.60244e-08
3.66754e-08
6.25689e-08
4.71577e-08
5.71442e-08
5.9931e-08
4.93578e-08
7.54025e-08
3.87467e-08
9.40433e-08
2.4758e-08
1.16379e-07
6.75584e-09
-1.61269e-08
1.43137e-07
-4.88101e-12
1.33658e-09
-1.74977e-11
4.06835e-09
-3.50516e-11
7.01831e-09
-5.29879e-11
1.01812e-08
-6.45808e-11
1.35478e-08
-6.0452e-11
1.71044e-08
-2.80106e-11
2.08324e-08
4.91841e-11
2.47075e-08
1.92146e-10
2.86995e-08
4.27327e-10
3.27712e-08
7.87579e-10
3.68779e-08
1.31326e-09
4.09664e-08
2.05312e-09
4.49744e-08
3.06575e-09
4.88292e-08
4.42117e-09
5.24466e-08
6.2025e-09
5.57293e-08
8.50791e-09
5.85652e-08
1.14528e-08
6.08251e-08
1.5172e-08
6.23601e-08
1.98231e-08
6.29978e-08
2.5589e-08
6.25386e-08
3.2682e-08
6.07496e-08
4.13476e-08
5.73587e-08
5.18697e-08
5.20469e-08
6.45758e-08
4.44381e-08
7.98445e-08
3.40892e-08
9.81121e-08
2.04791e-08
1.19883e-07
2.98666e-09
1.45724e-07
-1.90851e-08
-4.67893e-08
1.76387e-07
3.22515e-12
1.33336e-09
1.63099e-11
4.05527e-09
4.46645e-11
6.98996e-09
9.57387e-11
1.01301e-08
1.7946e-10
1.34641e-08
3.08751e-10
1.69751e-08
5.00124e-10
2.0641e-08
7.74362e-10
2.44333e-08
1.1573e-09
2.83166e-08
1.6807e-09
3.22478e-08
2.38331e-09
3.61753e-08
3.3118e-09
4.00379e-08
4.52214e-09
4.37641e-08
6.08094e-09
4.72704e-08
8.06714e-09
5.04604e-08
1.05738e-08
5.32227e-08
1.371e-08
5.5429e-08
1.76033e-08
5.69318e-08
2.24023e-08
5.75611e-08
2.82792e-08
5.71209e-08
3.54335e-08
5.53842e-08
4.40958e-08
5.20873e-08
5.45314e-08
4.69231e-08
6.7046e-08
3.95323e-08
8.19907e-08
2.94933e-08
9.97697e-08
1.63102e-08
1.20847e-07
-5.98622e-10
1.45758e-07
-2.19243e-08
1.75106e-07
-4.84328e-08
-8.13558e-08
2.09673e-07
1.07396e-11
1.32262e-09
4.78629e-11
4.01814e-09
1.1946e-10
6.91836e-09
2.35953e-10
1.00136e-08
4.1057e-10
1.32895e-08
6.59892e-10
1.67258e-08
1.00448e-09
2.02964e-08
1.46961e-09
2.39682e-08
2.08608e-09
2.77001e-08
2.89113e-09
3.14427e-08
3.92951e-09
3.51369e-08
5.25462e-09
3.87128e-08
6.9298e-09
4.20889e-08
9.02997e-09
4.51702e-08
1.16432e-08
4.78471e-08
1.48728e-08
4.99931e-08
1.8839e-08
5.14628e-08
2.36818e-08
5.2089e-08
2.95635e-08
5.16794e-08
3.66717e-08
5.00128e-08
4.52225e-08
4.68333e-08
5.54647e-08
4.18451e-08
6.76835e-08
3.47043e-08
8.2206e-08
2.50099e-08
9.94064e-08
1.22929e-08
1.19713e-07
-3.9964e-09
1.43615e-07
-2.45008e-08
1.71675e-07
-4.99843e-08
2.04533e-07
-8.12903e-08
-1.19825e-07
2.43002e-07
1.76973e-11
1.30492e-09
7.72944e-11
3.95855e-09
1.89615e-10
6.80604e-09
3.6813e-10
9.83513e-09
6.29457e-10
1.30281e-08
9.93943e-10
1.63613e-08
1.48633e-09
1.9804e-08
2.1365e-09
2.3318e-08
2.98039e-09
2.68562e-08
4.06089e-09
3.03622e-08
5.429e-09
3.37688e-08
7.14502e-09
3.69968e-08
9.28002e-09
3.99539e-08
1.19174e-08
4.25328e-08
1.51548e-08
4.46098e-08
1.91057e-08
4.60422e-08
2.39022e-08
4.66663e-08
2.9697e-08
4.62942e-08
3.66664e-08
4.471e-08
4.50136e-08
4.16656e-08
5.49716e-08
3.68753e-08
6.68075e-08
3.00092e-08
8.08264e-08
2.06854e-08
9.73763e-08
8.46002e-09
1.16853e-07
-7.18392e-09
1.39707e-07
-2.68504e-08
1.66451e-07
-5.12447e-08
1.97673e-07
-8.12067e-08
2.34044e-07
-1.1766e-07
-1.62189e-07
2.76407e-07
2.41594e-11
1.28076e-09
1.0484e-10
3.87787e-09
2.55655e-10
6.65523e-09
4.93192e-10
9.5976e-09
8.37545e-10
1.26838e-08
1.31293e-09
1.58859e-08
1.94839e-09
1.91686e-08
2.77858e-09
2.24878e-08
3.84471e-09
2.57901e-08
5.19552e-09
2.90114e-08
6.88848e-09
3.20758e-08
8.99106e-09
3.48942e-08
1.15823e-08
3.73626e-08
1.47545e-08
3.93606e-08
1.86149e-08
4.07494e-08
2.32879e-08
4.13691e-08
2.89175e-08
4.10368e-08
3.56696e-08
3.95422e-08
4.37349e-08
3.66446e-08
5.33325e-08
3.2068e-08
6.47126e-08
2.54952e-08
7.81607e-08
1.65611e-08
9.40016e-08
4.84457e-09
1.12603e-07
-1.01414e-08
1.34381e-07
-2.89617e-08
1.59806e-07
-5.22754e-08
1.89413e-07
-8.08515e-08
2.23811e-07
-1.15605e-07
2.63693e-07
-1.57543e-07
-2.08424e-07
3.09928e-07
3.02129e-11
1.25055e-09
1.3084e-10
3.77724e-09
3.18336e-10
6.46773e-09
6.12475e-10
9.30346e-09
1.03692e-09
1.22594e-08
1.61985e-09
1.5303e-08
2.39474e-09
1.83937e-08
3.40117e-09
2.14814e-08
4.68578e-09
2.45055e-08
6.30338e-09
2.73938e-08
8.31813e-09
3.00611e-08
1.0805e-08
3.24074e-08
1.38512e-08
3.43164e-08
1.75582e-08
3.56536e-08
2.20434e-08
3.62642e-08
2.74424e-08
3.59702e-08
3.39114e-08
3.45678e-08
4.16299e-08
3.18236e-08
5.08038e-08
2.74707e-08
6.1668e-08
2.12038e-08
7.44904e-08
1.26729e-08
8.95747e-08
1.47674e-09
1.07264e-07
-1.2845e-08
1.27945e-07
-3.08225e-08
1.52053e-07
-5.30694e-08
1.80077e-07
-8.0299e-08
2.12567e-07
-1.13342e-07
2.50149e-07
-1.53187e-07
2.93533e-07
-2.00927e-07
-2.58483e-07
3.43592e-07
3.59668e-11
1.21458e-09
1.55719e-10
3.65749e-09
3.7861e-10
6.24485e-09
7.2767e-10
8.9544e-09
1.23021e-09
1.17568e-08
1.9185e-09
1.46147e-08
2.83057e-09
1.74816e-08
4.01107e-09
2.03009e-08
5.51227e-09
2.30043e-08
7.39522e-09
2.55109e-08
9.73105e-09
2.77253e-08
1.26025e-08
2.9536e-08
1.61053e-08
3.08135e-08
2.03504e-08
3.14085e-08
2.54657e-08
3.11489e-08
3.15983e-08
2.98375e-08
3.89173e-08
2.72487e-08
4.76163e-08
2.31246e-08
5.79163e-08
1.71708e-08
7.00687e-08
9.0513e-09
8.43589e-08
-1.61732e-09
1.01108e-07
-1.52725e-08
1.20677e-07
-3.24143e-08
1.43471e-07
-5.36164e-08
1.69941e-07
-7.95393e-08
2.0059e-07
-1.10948e-07
2.35979e-07
-1.48731e-07
2.76741e-07
-1.93948e-07
3.23594e-07
-2.4778e-07
-3.12277e-07
3.77389e-07
4.15471e-11
1.17304e-09
1.79971e-10
3.51906e-09
4.37579e-10
5.98724e-09
8.40737e-10
8.55124e-09
1.4205e-09
1.11771e-08
2.21333e-09
1.38219e-08
3.26195e-09
1.6433e-08
4.61623e-09
1.89466e-08
6.33426e-09
2.12863e-08
8.48357e-09
2.33616e-08
1.11425e-08
2.50663e-08
1.44019e-08
2.62767e-08
1.83662e-08
2.68492e-08
2.31564e-08
2.66184e-08
2.8911e-08
2.53943e-08
3.57893e-08
2.29592e-08
4.39736e-08
1.90644e-08
5.36718e-08
1.34264e-08
6.51206e-08
5.72204e-09
7.85879e-08
-4.416e-09
9.43757e-08
-1.74051e-08
1.12823e-07
-3.37195e-08
1.34307e-07
-5.38991e-08
1.5925e-07
-7.8559e-08
1.88114e-07
-1.08403e-07
2.2141e-07
-1.44243e-07
2.597e-07
-1.87022e-07
3.03614e-07
-2.37862e-07
3.53872e-07
-2.98039e-07
-3.6966e-07
4.11255e-07
4.70908e-11
1.12595e-09
2.04131e-10
3.36203e-09
4.96449e-10
5.69492e-09
9.5382e-10
8.09387e-09
1.61114e-09
1.05197e-08
2.50919e-09
1.29238e-08
3.6955e-09
1.52467e-08
5.22533e-09
1.74168e-08
7.16281e-09
1.93488e-08
9.58218e-09
2.09422e-08
1.25693e-08
2.20792e-08
1.62231e-08
2.26228e-08
2.06575e-08
2.24147e-08
2.60035e-08
2.12725e-08
3.24109e-08
1.89868e-08
4.00514e-08
1.53186e-08
4.91208e-08
9.99505e-09
5.98418e-08
2.70543e-09
7.24664e-08
-6.90258e-09
8.72788e-08
-1.92284e-08
1.04598e-07
-3.47241e-08
1.24779e-07
-5.39011e-08
1.48218e-07
-7.73371e-08
1.75344e-07
-1.05686e-07
2.0663e-07
-1.39689e-07
2.42584e-07
-1.80197e-07
2.83759e-07
-2.28197e-07
3.30762e-07
-2.84865e-07
3.84312e-07
-3.51588e-07
-4.30394e-07
4.45046e-07
5.27405e-11
1.07321e-09
2.28758e-10
3.18601e-09
5.5647e-10
5.36721e-09
1.06915e-09
7.58119e-09
1.80562e-09
9.78326e-09
2.81111e-09
1.19183e-08
4.13811e-09
1.39197e-08
5.84744e-09
1.57074e-08
8.00943e-09
1.71868e-08
1.07053e-08
1.82463e-08
1.40286e-08
1.87559e-08
1.80868e-08
1.85646e-08
2.30034e-08
1.74981e-08
2.89198e-08
1.53561e-08
3.59974e-08
1.19092e-08
4.44207e-08
6.89534e-09
5.43992e-08
1.659e-11
6.617e-08
-9.06541e-09
8.00007e-08
-2.07332e-08
9.61917e-08
-3.54194e-08
1.15078e-07
-5.36108e-08
1.37032e-07
-7.5855e-08
1.6246e-07
-1.02765e-07
1.91803e-07
-1.35029e-07
2.25532e-07
-1.73418e-07
2.64141e-07
-2.18807e-07
3.08157e-07
-2.72213e-07
3.58141e-07
-3.34849e-07
4.14799e-07
-4.08247e-07
-4.94105e-07
4.7851e-07
5.86378e-11
1.01457e-09
2.54407e-10
2.99024e-09
6.18892e-10
5.00272e-09
1.18894e-09
7.01115e-09
2.00744e-09
8.96477e-09
3.12414e-09
1.08016e-08
4.59665e-09
1.24472e-08
6.49153e-09
1.38125e-08
8.88553e-09
1.47928e-08
1.1867e-08
1.52648e-08
1.55374e-08
1.50855e-08
2.00132e-08
1.40889e-08
2.54274e-08
1.20839e-08
3.19323e-08
8.85122e-09
3.97013e-08
4.14019e-09
4.89314e-08
-2.33476e-09
5.98458e-08
-1.08978e-08
7.2696e-08
-2.19157e-08
8.77653e-08
-3.58025e-08
1.0537e-07
-5.30239e-08
1.2586e-07
-7.41014e-08
1.49622e-07
-9.96166e-08
1.77072e-07
-1.30216e-07
2.08656e-07
-1.66613e-07
2.44837e-07
-2.09599e-07
2.86085e-07
-2.60054e-07
3.32869e-07
-3.18998e-07
3.85666e-07
-3.87645e-07
4.45152e-07
-4.67734e-07
-5.60215e-07
5.11263e-07
6.49182e-11
9.49651e-10
2.81612e-10
2.77355e-09
6.84907e-10
4.59943e-09
1.31533e-09
6.38073e-09
2.2199e-09
8.06019e-09
3.45307e-09
9.56848e-09
5.07767e-09
1.08226e-08
7.16617e-09
1.17241e-08
9.80192e-09
1.2157e-08
1.30806e-08
1.19862e-08
1.71118e-08
1.10542e-08
2.20211e-08
9.17965e-09
2.79514e-08
6.15354e-09
3.5066e-08
1.73665e-09
4.355e-08
-4.3438e-09
5.36131e-08
-1.23979e-08
6.5492e-08
-2.27767e-08
7.94531e-08
-3.58767e-08
9.5794e-08
-5.21435e-08
1.14846e-07
-7.20756e-08
1.36972e-07
-9.62281e-08
1.62571e-07
-1.25215e-07
1.92067e-07
-1.59711e-07
2.25906e-07
-2.00451e-07
2.64537e-07
-2.48231e-07
3.08393e-07
-3.03909e-07
3.5786e-07
-3.68465e-07
4.13244e-07
-4.43029e-07
4.75114e-07
-5.29604e-07
-6.27857e-07
5.42756e-07
7.1706e-11
8.77945e-10
3.10859e-10
2.5344e-09
7.55611e-10
4.15468e-09
1.45025e-09
5.68608e-09
2.44607e-09
7.06438e-09
3.80228e-09
8.21227e-09
5.58713e-09
9.03773e-09
7.87913e-09
9.43205e-09
1.07684e-08
9.26779e-09
1.4358e-08
8.3965e-09
1.8766e-08
6.64621e-09
2.4127e-08
3.81865e-09
3.05943e-08
-3.13679e-10
3.83416e-08
-6.0107e-09
4.7566e-08
-1.35682e-08
5.84898e-08
-2.33217e-08
7.13631e-08
-3.565e-08
8.64657e-08
-5.09794e-08
1.04109e-07
-6.97868e-08
1.24637e-07
-9.26033e-08
1.48425e-07
-1.20016e-07
1.75879e-07
-1.5267e-07
2.0743e-07
-1.91262e-07
2.4352e-07
-2.36542e-07
2.84587e-07
-2.89297e-07
3.31021e-07
-3.50344e-07
3.83116e-07
-4.20559e-07
4.40901e-07
-5.00814e-07
5.04453e-07
-5.93156e-07
-6.95562e-07
5.72158e-07
7.91105e-11
7.98835e-10
3.42577e-10
2.27093e-09
8.31962e-10
3.66529e-09
1.59542e-09
4.92263e-09
2.68858e-09
5.97122e-09
4.17558e-09
6.72527e-09
6.13019e-09
7.08312e-09
8.63707e-09
6.92516e-09
1.17932e-08
6.11168e-09
1.57093e-08
4.48035e-09
2.05119e-08
1.84363e-09
2.63447e-08
-2.01417e-09
3.3371e-08
-7.33995e-09
4.17754e-08
-1.44151e-08
5.17666e-08
-2.35594e-08
6.3579e-08
-3.51341e-08
7.74753e-08
-4.95463e-08
9.37476e-08
-6.72517e-08
1.12719e-07
-8.87584e-08
1.34745e-07
-1.14629e-07
1.60208e-07
-1.4548e-07
1.8952e-07
-1.81982e-07
2.23113e-07
-2.24855e-07
2.61427e-07
-2.74856e-07
3.04891e-07
-3.32761e-07
3.53883e-07
-3.99337e-07
4.08654e-07
-4.75329e-07
4.69045e-07
-5.61206e-07
5.34037e-07
-6.58147e-07
-7.596e-07
5.98075e-07
8.72206e-11
7.11615e-10
3.77117e-10
1.98103e-09
9.14748e-10
3.12766e-09
1.75222e-09
4.08516e-09
2.94961e-09
4.77382e-09
4.57607e-09
5.0988e-09
6.71101e-09
4.94819e-09
9.44533e-09
4.19084e-09
1.2883e-08
2.67405e-09
1.71424e-08
2.20919e-10
2.23584e-08
-3.3724e-09
2.8684e-08
-8.33974e-09
3.62922e-08
-1.49482e-08
4.53785e-08
-2.35014e-08
5.61624e-08
-3.43433e-08
6.889e-08
-4.78617e-08
8.3835e-08
-6.44913e-08
1.01301e-07
-8.47172e-08
1.21619e-07
-1.09077e-07
1.45152e-07
-1.38162e-07
1.72289e-07
-1.72616e-07
2.03439e-07
-2.13133e-07
2.39032e-07
-2.60447e-07
2.795e-07
-3.15323e-07
3.2527e-07
-3.78531e-07
3.76751e-07
-4.50817e-07
4.34291e-07
-5.3287e-07
4.98192e-07
-6.25107e-07
5.68634e-07
-7.28589e-07
-8.41534e-07
6.50568e-07
9.61101e-11
6.15505e-10
4.14759e-10
1.66238e-09
1.00459e-09
2.53784e-09
1.92173e-09
3.16802e-09
3.23081e-09
3.46474e-09
5.0061e-09
3.32351e-09
7.33268e-09
2.62162e-09
1.03078e-08
1.21574e-09
1.40423e-08
-1.06048e-09
1.86624e-08
-4.39919e-09
2.43112e-08
-9.02122e-09
3.11508e-08
-1.51793e-08
3.93638e-08
-2.31612e-08
4.91559e-08
-3.32935e-08
6.0757e-08
-4.59444e-08
7.44233e-08
-6.1528e-08
9.04383e-08
-8.05063e-08
1.09113e-07
-1.03392e-07
1.30788e-07
-1.30751e-07
1.55826e-07
-1.632e-07
1.84614e-07
-2.01405e-07
2.17557e-07
-2.46076e-07
2.55067e-07
-2.97957e-07
2.97554e-07
-3.5781e-07
3.45416e-07
-4.26394e-07
3.9903e-07
-5.04431e-07
4.58728e-07
-5.92567e-07
5.24865e-07
-6.91244e-07
5.97676e-07
-8.01399e-07
-9.2094e-07
6.77082e-07
1.05825e-10
5.09681e-10
4.55684e-10
1.31253e-09
1.10187e-09
1.89165e-09
2.10465e-09
2.16525e-09
3.53326e-09
2.03612e-09
5.46712e-09
1.38965e-09
7.99704e-09
9.16923e-11
1.12266e-08
-2.01382e-09
1.52736e-08
-5.10753e-09
2.02719e-08
-9.39746e-09
2.63728e-08
-1.51221e-08
3.37471e-08
-2.25535e-08
4.25867e-08
-3.20009e-08
5.31066e-08
-4.38134e-08
6.55462e-08
-5.8384e-08
8.01705e-08
-7.61522e-08
9.72705e-08
-9.76063e-08
1.17163e-07
-1.23285e-07
1.40191e-07
-1.53778e-07
1.66715e-07
-1.89724e-07
1.97115e-07
-2.31805e-07
2.31778e-07
-2.80739e-07
2.71089e-07
-3.37268e-07
3.15416e-07
-4.02138e-07
3.65099e-07
-4.76077e-07
4.20418e-07
-5.5975e-07
4.8157e-07
-6.53719e-07
5.48666e-07
-7.5834e-07
6.21437e-07
-8.7417e-07
-9.98387e-07
6.98883e-07
1.16391e-10
3.93291e-10
4.99989e-10
9.28929e-10
1.20682e-09
1.18482e-09
2.30132e-09
1.07075e-09
3.85742e-09
4.80022e-10
5.95972e-09
-7.12645e-10
8.70474e-09
-2.65333e-09
1.22024e-08
-5.51145e-09
1.65773e-08
-9.4825e-09
2.19709e-08
-1.4791e-08
2.85423e-08
-2.16935e-08
3.64707e-08
-3.0482e-08
4.59566e-08
-4.14868e-08
5.72236e-08
-5.50803e-08
7.05189e-08
-7.16794e-08
8.61146e-08
-9.17479e-08
1.04307e-07
-1.15799e-07
1.25416e-07
-1.44394e-07
1.49781e-07
-1.78143e-07
1.77757e-07
-2.177e-07
2.09708e-07
-2.63756e-07
2.45996e-07
-3.17026e-07
2.86966e-07
-3.78238e-07
3.32932e-07
-4.48104e-07
3.84146e-07
-5.27292e-07
4.4077e-07
-6.16374e-07
5.02844e-07
-7.15793e-07
5.7023e-07
-8.25726e-07
6.42351e-07
-9.46292e-07
-1.07418e-06
7.18141e-07
1.27813e-10
2.65478e-10
5.47688e-10
5.09056e-10
1.31944e-09
4.13065e-10
2.51174e-09
-1.2155e-10
4.20321e-09
-1.21145e-09
6.48363e-09
-2.99306e-09
9.45523e-09
-5.62493e-09
1.32341e-08
-9.29034e-09
1.79518e-08
-1.42002e-08
2.37566e-08
-2.05958e-08
3.08155e-08
-2.87524e-08
3.93153e-08
-3.89818e-08
4.94644e-08
-5.16359e-08
6.14934e-08
-6.71094e-08
7.56564e-08
-8.58423e-08
9.22302e-08
-1.08322e-07
1.11514e-07
-1.35082e-07
1.33825e-07
-1.66706e-07
1.59499e-07
-2.03817e-07
1.88876e-07
-2.47078e-07
2.22299e-07
-2.97179e-07
2.60095e-07
-3.54822e-07
3.02561e-07
-4.20704e-07
3.49942e-07
-4.95485e-07
4.02392e-07
-5.79742e-07
4.59955e-07
-6.73936e-07
5.22523e-07
-7.78361e-07
5.89764e-07
-8.92966e-07
6.60958e-07
-1.01749e-06
-1.14831e-06
7.35089e-07
1.40078e-10
1.254e-10
5.98712e-10
5.04216e-11
1.43956e-09
-4.27785e-10
2.73555e-09
-1.41754e-09
4.56999e-09
-3.04589e-09
7.03781e-09
-5.46089e-09
1.02469e-08
-8.83401e-09
1.43194e-08
-1.33629e-08
1.93934e-08
-1.92741e-08
2.56239e-08
-2.68264e-08
3.31851e-08
-3.63135e-08
4.22707e-08
-4.80674e-08
5.30959e-08
-6.24611e-08
6.58973e-08
-7.99108e-08
8.09336e-08
-1.00879e-07
9.84841e-08
-1.25872e-07
1.18847e-07
-1.55446e-07
1.42337e-07
-1.90195e-07
1.69275e-07
-2.30755e-07
1.99985e-07
-2.77788e-07
2.3478e-07
-3.31974e-07
2.73947e-07
-3.93989e-07
3.17725e-07
-4.64483e-07
3.66278e-07
-5.44037e-07
4.19663e-07
-6.33127e-07
4.77815e-07
-7.32088e-07
5.40485e-07
-8.41031e-07
6.07198e-07
-9.5968e-07
6.77168e-07
-1.08746e-06
-1.22059e-06
7.49452e-07
1.53152e-10
-2.77517e-11
6.52924e-10
-4.49349e-10
1.56684e-09
-1.3417e-09
2.97209e-09
-2.82278e-09
4.95665e-09
-5.03045e-09
7.62053e-09
-8.12477e-09
1.10771e-08
-1.22906e-08
1.54544e-08
-1.77402e-08
2.08966e-08
-2.47163e-08
2.75653e-08
-3.34951e-08
3.56408e-08
-4.4389e-08
4.53231e-08
-5.77498e-08
5.68328e-08
-7.39708e-08
7.04111e-08
-9.34891e-08
8.63191e-08
-1.16787e-07
1.04836e-07
-1.44389e-07
1.26257e-07
-1.76866e-07
1.50885e-07
-2.14824e-07
1.79029e-07
-2.58898e-07
2.10987e-07
-3.09746e-07
2.47036e-07
-3.68023e-07
2.87416e-07
-4.34369e-07
3.32299e-07
-5.09365e-07
3.81763e-07
-5.93501e-07
4.35778e-07
-6.87142e-07
4.94164e-07
-7.90474e-07
5.56549e-07
-9.03416e-07
6.22359e-07
-1.02549e-06
6.90767e-07
-1.15586e-06
-1.29073e-06
7.60904e-07
1.66987e-10
-1.94739e-10
7.10123e-10
-9.92485e-10
1.70081e-09
-2.33239e-09
3.22046e-09
-4.34243e-09
5.36166e-09
-7.17165e-09
8.22939e-09
-1.09925e-08
1.19423e-08
-1.60035e-08
1.6634e-08
-2.24319e-08
2.24545e-08
-3.05368e-08
2.95711e-08
-4.06117e-08
3.81697e-08
-5.29876e-08
4.84554e-08
-6.80355e-08
6.0653e-08
-8.61683e-08
7.50061e-08
-1.07842e-07
9.17763e-08
-1.33557e-07
1.1124e-07
-1.63853e-07
1.33684e-07
-1.99311e-07
1.59401e-07
-2.4054e-07
1.88675e-07
-2.88173e-07
2.21777e-07
-3.42848e-07
2.58944e-07
-4.0519e-07
3.00357e-07
-4.75782e-07
3.46116e-07
-5.55124e-07
3.96221e-07
-6.43607e-07
4.50549e-07
-7.4147e-07
5.08808e-07
-8.48733e-07
5.70525e-07
-9.65132e-07
6.35056e-07
-1.09002e-06
7.01547e-07
-1.22236e-06
-1.35838e-06
7.69196e-07
1.81525e-10
-3.76264e-10
7.70056e-10
-1.58102e-09
1.84085e-09
-3.40318e-09
3.4795e-09
-5.98108e-09
5.78309e-09
-9.47524e-09
8.86139e-09
-1.40708e-08
1.28381e-08
-1.99802e-08
1.78521e-08
-2.74459e-08
2.40585e-08
-3.67431e-08
3.16297e-08
-4.81829e-08
4.07564e-08
-6.21143e-08
5.16477e-08
-7.89267e-08
6.45306e-08
-9.90513e-08
7.96497e-08
-1.22961e-07
9.72642e-08
-1.51171e-07
1.17645e-07
-1.84234e-07
1.41067e-07
-2.22733e-07
1.67806e-07
-2.67278e-07
1.98121e-07
-3.18488e-07
2.32248e-07
-3.76974e-07
2.70375e-07
-4.43318e-07
3.12621e-07
-5.18028e-07
3.59016e-07
-6.01519e-07
4.09479e-07
-6.9407e-07
4.6379e-07
-7.95781e-07
5.21558e-07
-9.06501e-07
5.82235e-07
-1.02581e-06
6.45118e-07
-1.1529e-06
7.09345e-07
-1.28658e-06
-1.4232e-06
7.74171e-07
1.96694e-10
-5.72958e-10
8.32422e-10
-2.21674e-09
1.98625e-09
-4.55701e-09
3.74786e-09
-7.74269e-09
6.21868e-09