/*--------------------------------*- C++ -*----------------------------------*\
| =========                 |                                                 |
| \\      /  F ield         | foam-extend: Open Source CFD                    |
|  \\    /   O peration     | Version:     4.0                                |
|   \\  /    A nd           | Web:         http://www.foam-extend.org         |
|    \\/     M anipulation  |                                                 |
\*---------------------------------------------------------------------------*/
FoamFile
{
    version     2.0;
    format      ascii;
    class       volVectorField;
    location    "100";
    object      U;
}
// * * * * * * * * * * * * * * * * * * * * * * * * * * * * * * * * * * * * * //

dimensions      [0 1 -1 0 0 0 0];

internalField   nonuniform List<vector> 
36000
(
(-2.11954e-07 1.01105e-06 -2.47109e-25)
(-2.13367e-06 2.88882e-06 2.55138e-25)
(-6.15681e-06 4.68069e-06 0)
(-1.23365e-05 6.38135e-06 0)
(-2.06913e-05 7.98608e-06 -2.20352e-25)
(-3.12523e-05 9.4903e-06 -2.0876e-25)
(-4.40511e-05 1.08898e-05 0)
(-5.91046e-05 1.2181e-05 0)
(-7.6412e-05 1.33611e-05 0)
(-9.59558e-05 1.44279e-05 0)
(-0.000117701 1.53801e-05 0)
(-0.000141596 1.62171e-05 -2.90463e-25)
(-0.000167573 1.69392e-05 -3.64469e-28)
(-0.000195545 1.75474e-05 -2.53763e-25)
(-0.000225411 1.80435e-05 2.36815e-25)
(-0.000257055 1.843e-05 -2.20293e-25)
(-0.000290347 1.87101e-05 4.10283e-25)
(-0.000325143 1.88874e-05 -1.90603e-25)
(-0.000361287 1.89662e-05 1.76675e-25)
(-0.000398615 1.89507e-05 4.91481e-25)
(-0.000436952 1.88451e-05 7.19645e-29)
(-0.000476114 1.86535e-05 5.60509e-25)
(-0.000515907 1.83794e-05 -1.2929e-25)
(-0.000556129 1.8025e-05 -2.38365e-25)
(-0.000596565 1.75914e-05 -2.19592e-25)
(-0.000636987 1.70782e-05 0)
(-0.000677147 1.64834e-05 0)
(-0.00071678 1.58016e-05 0)
(-0.000755573 1.50185e-05 1.55412e-25)
(-0.000793105 1.41041e-05 -2.84553e-25)
(-3.1438e-07 3.0012e-06 0)
(-2.40951e-06 8.57664e-06 0)
(-6.57441e-06 1.38987e-05 0)
(-1.28633e-05 1.89515e-05 9.30388e-25)
(-2.12942e-05 2.37213e-05 -2.18587e-25)
(-3.18976e-05 2.81944e-05 2.08748e-25)
(-4.47041e-05 3.23584e-05 0)
(-5.97295e-05 3.62026e-05 0)
(-7.69725e-05 3.97188e-05 -7.02929e-25)
(-9.64145e-05 4.29005e-05 6.59312e-25)
(-0.00011802 4.57438e-05 -6.20314e-25)
(-0.000141735 4.8247e-05 5.80103e-25)
(-0.000167492 5.04108e-05 2.71594e-25)
(-0.000195202 5.22383e-05 2.53683e-25)
(-0.000224763 5.37348e-05 4.73178e-25)
(-0.000256056 5.49076e-05 0)
(-0.000288949 5.5766e-05 -1.23139e-24)
(-0.000323296 5.6321e-05 -7.53689e-28)
(-0.000358939 5.65849e-05 1.41467e-24)
(-0.000395708 5.65702e-05 -9.82802e-25)
(-0.000433425 5.62897e-05 -6.06871e-25)
(-0.0004719 5.57551e-05 5.61088e-25)
(-0.000510934 5.49765e-05 -5.17404e-25)
(-0.000550317 5.39609e-05 9.54606e-25)
(-0.000589827 5.27113e-05 1.71313e-29)
(-0.000629226 5.12267e-05 8.07693e-25)
(-0.000668256 4.95008e-05 -1.11328e-24)
(-0.000706644 4.75172e-05 0)
(-0.000744069 4.52353e-05 0)
(-0.000779916 4.25719e-05 0)
(-5.16459e-07 4.9501e-06 9.91642e-25)
(-2.95385e-06 1.4149e-05 3.85421e-27)
(-7.39859e-06 2.2933e-05 -1.46605e-24)
(-1.39031e-05 3.12759e-05 1.86421e-24)
(-2.24844e-05 3.91544e-05 -2.20495e-24)
(-3.31714e-05 4.65457e-05 -1.67601e-24)
(-4.59928e-05 5.34288e-05 3.16417e-24)
(-6.09628e-05 5.97861e-05 -1.49085e-24)
(-7.8078e-05 6.5603e-05 0)
(-9.73181e-05 7.08689e-05 0)
(-0.000118646 7.55768e-05 0)
(-0.000142005 7.97235e-05 0)
(-0.000167325 8.33098e-05 1.08901e-24)
(-0.000194515 8.63404e-05 -2.54082e-24)
(-0.00022347 8.88236e-05 1.8966e-24)
(-0.000254067 9.07711e-05 0)
(-0.000286169 9.21983e-05 8.22052e-25)
(-0.000319625 9.31229e-05 -7.62863e-25)
(-0.000354271 9.35647e-05 0)
(-0.00038993 9.35444e-05 0)
(-0.000426415 9.30825e-05 3.03667e-24)
(-0.000463526 9.21984e-05 -1.68293e-24)
(-0.000501053 9.09086e-05 0)
(-0.000538771 8.92242e-05 3.73446e-28)
(-0.000576443 8.71502e-05 -8.79523e-25)
(-0.000613811 8.46847e-05 -8.10364e-25)
(-0.0006506 8.18169e-05 7.41234e-25)
(-0.00068652 7.85196e-05 6.81688e-25)
(-0.000721239 7.47301e-05 0)
(-0.000753744 7.03342e-05 1.71004e-24)
(-8.13197e-07 6.83153e-06 0)
(-3.75343e-06 1.95322e-05 0)
(-8.60957e-06 3.16665e-05 4.89805e-25)
(-1.54313e-05 4.31974e-05 -1.86933e-24)
(-2.42338e-05 5.4092e-05 3.54259e-24)
(-3.50437e-05 6.43179e-05 -2.51558e-24)
(-4.78869e-05 7.38455e-05 0)
(-6.27745e-05 8.26493e-05 0)
(-7.97007e-05 9.07087e-05 -2.11675e-24)
(-9.86422e-05 9.80078e-05 2.64983e-24)
(-0.000119558 0.000104536 -1.24222e-24)
(-0.000142391 0.000110288 -1.16686e-24)
(-0.000167064 0.000115265 2.18211e-24)
(-0.000193484 0.000119471 -2.03507e-24)
(-0.00022154 0.000122918 -9.4904e-25)
(-0.000251104 0.000125621 0)
(-0.000282032 0.0001276 -3.29481e-24)
(-0.000314166 0.000128881 -2.51131e-27)
(-0.000347333 0.000129488 2.83912e-24)
(-0.000381344 0.000129451 1.88962e-27)
(-0.000416001 0.000128797 1.20507e-27)
(-0.000451089 0.000127553 2.85088e-28)
(-0.000486379 0.00012574 -1.0375e-24)
(-0.000521629 0.000123375 1.91512e-24)
(-0.000556576 0.000120463 0)
(-0.000590936 0.000117001 -5.61973e-28)
(-0.000624408 0.000112975 2.97501e-24)
(-0.000656679 0.000108345 -1.36547e-24)
(-0.000687408 0.000103031 -3.75237e-24)
(-0.000714974 9.69216e-05 -3.42597e-24)
(-1.19734e-06 8.62103e-06 1.49793e-24)
(-4.78902e-06 2.46577e-05 -3.09683e-24)
(-1.01785e-05 3.99895e-05 1.96613e-24)
(-1.74117e-05 5.45686e-05 1.87608e-24)
(-2.65014e-05 6.83519e-05 -1.77488e-24)
(-3.74707e-05 8.12975e-05 8.4032e-25)
(-5.03415e-05 9.33664e-05 -2.38917e-24)
(-6.51212e-05 0.000104525 6.00394e-24)
(-8.17999e-05 0.000114746 -7.01736e-25)
(-0.00010035 0.000124007 1.33113e-24)
(-0.000120728 0.000132294 -1.24912e-24)
(-0.00014287 0.000139599 1.16678e-24)
(-0.000166696 0.000145919 0)
(-0.000192105 0.000151262 0)
(-0.000218981 0.00015564 3.8127e-24)
(-0.000247189 0.000159071 -1.77257e-24)
(-0.000276575 0.000161579 1.64785e-24)
(-0.000306973 0.000163195 1.53069e-24)
(-0.000338195 0.000163951 -2.8435e-24)
(-0.000370042 0.000163881 -3.95189e-24)
(-0.000402297 0.00016302 1.21845e-24)
(-0.000434727 0.0001614 4.50849e-24)
(-0.00046708 0.000159049 -2.07927e-24)
(-0.000499088 0.000155985 4.3895e-27)
(-0.00053046 0.000152217 1.76737e-24)
(-0.000560879 0.00014774 -1.62529e-24)
(-0.000590007 0.000142535 -1.48986e-24)
(-0.000617504 0.00013655 2.21084e-27)
(-0.000643041 0.000129681 1.24725e-24)
(-0.000664136 0.000121876 2.28525e-24)
(-1.65966e-06 1.02966e-05 4.50991e-24)
(-6.03604e-06 2.94632e-05 -1.03568e-24)
(-1.20686e-05 4.78023e-05 0)
(-1.97982e-05 6.52549e-05 -9.4335e-25)
(-2.92344e-05 8.17678e-05 -4.47033e-24)
(-4.03958e-05 9.72885e-05 5.07068e-24)
(-5.32989e-05 0.000111769 2.40154e-24)
(-6.79461e-05 0.000125166 -1.49966e-24)
(-8.43223e-05 0.000137445 1.42416e-24)
(-0.000102395 0.000148577 -6.66432e-24)
(-0.000122115 0.000158544 3.74892e-24)
(-0.000143412 0.000167332 -1.17169e-24)
(-0.0001662 0.000174938 4.38516e-24)
(-0.000190372 0.000181367 -2.04639e-24)
(-0.000215802 0.000186632 -5.73128e-24)
(-0.000242347 0.000190754 3.55725e-24)
(-0.000269843 0.00019376 -3.30841e-24)
(-0.00029811 0.000195685 -3.11547e-27)
(-0.000326947 0.000196565 -1.43159e-24)
(-0.000356138 0.000196441 -1.32277e-24)
(-0.000385445 0.000195353 4.88716e-24)
(-0.000414613 0.000193338 -4.51359e-24)
(-0.000443364 0.000190428 0)
(-0.000471399 0.000186644 -1.92244e-24)
(-0.000498393 0.000181997 -1.76817e-24)
(-0.000523988 0.000176482 -3.26182e-24)
(-0.000547804 0.000170075 2.99356e-24)
(-0.000569468 0.00016271 0)
(-0.000588697 0.000154252 6.27633e-24)
(-0.000601911 0.000144762 -1.14885e-24)
(-2.18928e-06 1.18391e-05 0)
(-7.46548e-06 3.38944e-05 0)
(-1.42361e-05 5.50173e-05 0)
(-2.2536e-05 7.51378e-05 -5.30593e-27)
(-3.23702e-05 9.41917e-05 6.28739e-24)
(-4.37514e-05 0.000112116 -5.08726e-24)
(-5.66897e-05 0.000128852 3.21317e-24)
(-7.11808e-05 0.000144349 -6.05081e-24)
(-8.72033e-05 0.000158561 -1.42818e-24)
(-0.000104718 0.000171455 -2.68002e-24)
(-0.000123668 0.000183004 2.5099e-24)
(-0.000143978 0.000193191 1.18048e-24)
(-0.000165552 0.000202009 6.2557e-27)
(-0.000188274 0.000209462 0)
(-0.000212011 0.00021556 -7.02594e-27)
(-0.000236606 0.000220327 1.78282e-24)
(-0.000261884 0.000223792 -1.65502e-24)
(-0.00028765 0.000225991 1.5389e-24)
(-0.000313687 0.000226966 5.71915e-24)
(-0.000339759 0.000226761 -3.9212e-27)
(-0.000365606 0.000225421 -2.45407e-24)
(-0.000390946 0.000222987 -2.2611e-24)
(-0.000415473 0.000219493 -3.35844e-27)
(-0.000438851 0.000214964 -1.93596e-24)
(-0.000460716 0.000209412 -3.55464e-24)
(-0.000480666 0.000202832 4.89705e-24)
(-0.000498276 0.000195194 -1.49402e-24)
(-0.000513124 0.000186423 -2.74799e-24)
(-0.000525031 0.000176355 -5.03015e-24)
(-0.000529077 0.000165179 2.30399e-24)
(-2.77403e-06 1.32327e-05 -4.0614e-24)
(-9.04484e-06 3.7906e-05 0)
(-1.66322e-05 6.15611e-05 -4.00949e-24)
(-2.55632e-05 8.41166e-05 4.74926e-24)
(-3.58376e-05 0.000105497 -5.41248e-24)
(-4.74607e-05 0.00012563 6.83097e-24)
(-6.04346e-05 0.000144444 -6.45256e-24)
(-7.47468e-05 0.000161879 1.51128e-24)
(-9.03679e-05 0.000177881 2.85309e-24)
(-0.000107251 0.000192408 -4.85801e-27)
(-0.00012533 0.000205425 -5.05097e-24)
(-0.00014452 0.000216911 4.72945e-24)
(-0.000164717 0.000226854 -4.41466e-24)
(-0.000185795 0.000235254 -8.25299e-24)
(-0.000207608 0.000242121 5.76569e-24)
(-0.000229988 0.000247476 1.78791e-24)
(-0.000252745 0.00025135 -5.0004e-24)
(-0.000275667 0.000253782 -3.09942e-24)
(-0.000298519 0.000254815 -2.86419e-24)
(-0.000321043 0.000254497 7.97381e-24)
(-0.000342954 0.000252874 -2.46676e-24)
(-0.000363942 0.000249992 3.63527e-27)
(-0.000383666 0.000245887 -4.20456e-24)
(-0.000401755 0.000240585 7.73362e-24)
(-0.000417803 0.000234099 3.5548e-24)
(-0.000431357 0.000226422 -3.26916e-24)
(-0.000441944 0.000217523 6.41472e-27)
(-0.000449081 0.000207318 2.76072e-24)
(-0.000452794 0.000195658 5.04378e-24)
(-0.000446441 0.000182735 -6.9217e-24)
(-3.40095e-06 1.44651e-05 4.09618e-24)
(-1.07393e-05 4.14623e-05 -5.29154e-24)
(-1.92039e-05 6.73751e-05 -4.0363e-24)
(-2.88132e-05 9.21107e-05 3.82606e-24)
(-3.95597e-05 0.000115583 3.6353e-24)
(-5.144e-05 0.000137706 -1.70891e-24)
(-6.44466e-05 0.0001584 0)
(-7.8557e-05 0.000177593 0)
(-9.37322e-05 0.000195222 1.43538e-24)
(-0.000109915 0.000211235 2.69699e-24)
(-0.00012703 0.000225591 7.60434e-24)
(-0.000144982 0.000238261 -4.74578e-24)
(-0.000163654 0.000249227 -1.05807e-26)
(-0.00018291 0.000258485 4.14664e-24)
(-0.000202589 0.000266043 -1.93325e-24)
(-0.000222511 0.00027192 -3.59581e-24)
(-0.000242468 0.000276146 1.00346e-23)
(-0.00026223 0.00027876 3.10095e-24)
(-0.000281543 0.000279807 6.33324e-27)
(-0.000300124 0.000279336 5.06327e-27)
(-0.000317662 0.000277396 -4.04627e-27)
(-0.000333815 0.000274033 2.27996e-24)
(-0.000348208 0.000269284 6.31304e-24)
(-0.000360433 0.000263179 1.29348e-26)
(-0.000370037 0.000255727 3.57095e-24)
(-0.000376516 0.00024692 -9.85992e-24)
(-0.000379348 0.000236726 -6.03191e-24)
(-0.000377962 0.000225067 3.34809e-27)
(-0.000372812 0.0002118 2.53872e-24)
(-0.000354825 0.000197119 4.61158e-24)
(-4.05662e-06 1.55279e-05 -3.09287e-24)
(-1.25126e-05 4.45381e-05 5.32464e-24)
(-2.18964e-05 7.24166e-05 -2.03867e-24)
(-3.22159e-05 9.90597e-05 5.79723e-24)
(-4.34551e-05 0.000124369 -3.6528e-24)
(-5.56004e-05 0.000148249 -1.72371e-24)
(-6.86324e-05 0.000170606 -6.53583e-24)
(-8.25173e-05 0.00019136 6.14987e-24)
(-9.72044e-05 0.000210437 -2.90403e-24)
(-0.000112625 0.000227774 0)
(-0.000128691 0.000243323 -5.10138e-24)
(-0.000145296 0.000257046 4.77068e-24)
(-0.00016231 0.000268919 -2.23818e-24)
(-0.000179582 0.000278934 4.16286e-24)
(-0.000196937 0.000287093 1.93643e-24)
(-0.000214179 0.000293413 0)
(-0.000231082 0.000297923 1.46313e-26)
(-0.000247398 0.00030066 0)
(-0.000262849 0.00030167 1.1665e-26)
(-0.000277126 0.000301001 5.36064e-24)
(-0.000289891 0.000298703 4.9631e-24)
(-0.000300769 0.000294822 2.28795e-24)
(-0.000309353 0.000289398 -1.26628e-23)
(-0.000315192 0.000282456 7.18452e-27)
(-0.00031779 0.000274007 0)
(-0.000316591 0.000264043 6.59213e-24)
(-0.000311022 0.000252528 -3.36688e-27)
(-0.000300378 0.000239405 8.34363e-24)
(-0.000285846 0.000224495 0)
(-0.000255129 0.000208026 -4.6256e-24)
(-4.72765e-06 1.64163e-05 1.05327e-24)
(-1.43285e-05 4.7118e-05 2.15977e-24)
(-2.46541e-05 7.6659e-05 4.09361e-24)
(-3.57001e-05 0.000104924 -1.16662e-23)
(-4.74407e-05 0.000131805 5.51103e-24)
(-5.98498e-05 0.000157192 -5.22238e-24)
(-7.28948e-05 0.000180983 1.31484e-23)
(-8.65283e-05 0.000203085 -6.19014e-24)
(-0.000100686 0.000223414 5.82641e-24)
(-0.000115286 0.000241899 0)
(-0.000130226 0.000258479 0)
(-0.000145385 0.00027311 7.20777e-24)
(-0.000160619 0.000285762 2.97606e-27)
(-0.000175761 0.000296418 -4.1844e-24)
(-0.00019062 0.000305077 9.15713e-27)
(-0.000204981 0.000311752 -9.57433e-27)
(-0.000218601 0.000316468 -6.74045e-24)
(-0.000231209 0.00031926 3.13135e-24)
(-0.000242502 0.000320173 -2.89737e-24)
(-0.000252147 0.000319254 2.69354e-24)
(-0.000259775 0.000316553 -9.93635e-24)
(-0.000264983 0.000312115 -9.19565e-24)
(-0.000267324 0.000305981 4.24789e-24)
(-0.000266311 0.000298176 7.82123e-24)
(-0.000261406 0.000288704 -3.60264e-24)
(-0.000251999 0.000277554 -3.30188e-24)
(-0.000237453 0.000264686 0)
(-0.00021684 0.000250088 -5.56521e-24)
(-0.000192546 0.000233434 0)
(-0.000148361 0.000215512 6.95813e-24)
(-5.40102e-06 1.7129e-05 -2.08866e-24)
(-1.61514e-05 4.91968e-05 6.5223e-24)
(-2.7422e-05 8.00911e-05 -8.22968e-24)
(-3.91952e-05 0.000109686 -1.56749e-26)
(-5.14329e-05 0.000137861 3.71097e-24)
(-6.40952e-05 0.000164497 -8.7677e-24)
(-7.7134e-05 0.00018948 6.61681e-24)
(-9.04867e-05 0.000212706 0)
(-0.000104074 0.00023408 2.94369e-24)
(-0.000117797 0.000253521 -8.26318e-24)
(-0.000131538 0.000270959 0)
(-0.00014516 0.000286341 -9.65575e-24)
(-0.000158503 0.000299628 4.50907e-24)
(-0.000171381 0.000310798 -4.21955e-24)
(-0.000183588 0.000319844 -3.90067e-24)
(-0.000194887 0.000326773 7.28648e-24)
(-0.000205014 0.000331607 0)
(-0.000213674 0.000334378 3.15298e-24)
(-0.000220541 0.000335126 5.83133e-24)
(-0.000225255 0.0003339 -1.08097e-23)
(-0.000227417 0.000330748 4.99182e-24)
(-0.000226595 0.000325717 -4.61982e-24)
(-0.000222307 0.00031884 -4.2535e-24)
(-0.000214023 0.000310142 -3.92195e-24)
(-0.000201162 0.000299624 -7.22239e-27)
(-0.000183067 0.000287272 0)
(-0.000159053 0.000273038 -6.10381e-24)
(-0.000127861 0.000256972 0)
(-9.30497e-05 0.000237924 0)
(-3.5602e-05 0.000220038 4.67558e-24)
(-6.06447e-06 1.76681e-05 2.12677e-24)
(-1.79473e-05 5.07783e-05 -2.19787e-24)
(-3.01476e-05 8.27159e-05 -1.03998e-23)
(-4.26321e-05 0.000113345 9.86048e-24)
(-5.53496e-05 0.000142535 -9.34584e-24)
(-6.82438e-05 0.000170154 1.06147e-23)
(-8.12495e-05 0.000196079 -6.67161e-24)
(-9.42866e-05 0.000220194 1.25598e-23)
(-0.000107258 0.000242396 -5.90152e-24)
(-0.000120048 0.000262591 2.76116e-24)
(-0.000132521 0.000280701 2.58795e-24)
(-0.00014452 0.000296664 -4.8701e-24)
(-0.000155867 0.000310432 0)
(-0.00016636 0.000321977 4.23158e-24)
(-0.000175769 0.000331286 1.0235e-26)
(-0.000183837 0.000338359 7.34183e-24)
(-0.000190277 0.000343213 -6.82077e-24)
(-0.00019477 0.000345877 3.16664e-24)
(-0.000196963 0.000346388 -5.84456e-24)
(-0.000196473 0.000344796 1.08336e-23)
(-0.000192873 0.000341144 0)
(-0.000185694 0.000335475 0)
(-0.000174418 0.000327824 8.53123e-24)
(-0.000158478 0.00031821 3.92487e-24)
(-0.00013725 0.000306632 -7.24234e-24)
(-0.00011003 0.000293072 -3.33707e-24)
(-7.61e-05 0.000277473 6.1046e-24)
(-3.42157e-05 0.000259863 5.61491e-24)
(1.26102e-05 0.000238551 5.15261e-24)
(8.32658e-05 0.000220701 -4.64965e-24)
(-6.70668e-06 1.80387e-05 -1.06732e-23)
(-1.96846e-05 5.18745e-05 2.19786e-24)
(-3.27807e-05 8.45501e-05 0)
(-4.59452e-05 0.00011592 0)
(-5.91109e-05 0.000145843 -7.543e-24)
(-7.22042e-05 0.000174177 3.57392e-24)
(-8.51405e-05 0.000200789 0)
(-9.78202e-05 0.000225554 0)
(-0.000110127 0.000248357 -2.96259e-24)
(-0.000121924 0.000269096 8.37528e-24)
(-0.000133057 0.000287683 -1.70556e-26)
(-0.00014335 0.000304046 2.45128e-24)
(-0.000152603 0.000318132 -1.37924e-26)
(-0.000160592 0.000329903 -8.49833e-24)
(-0.000167066 0.000339338 7.93699e-24)
(-0.000171743 0.000346435 1.90724e-26)
(-0.000174313 0.000351204 3.41467e-24)
(-0.000174431 0.000353669 1.27142e-23)
(-0.000171725 0.000353868 -1.76531e-23)
(-0.000165778 0.000351844 0)
(-0.000156133 0.000347639 0)
(-0.00014229 0.000341295 9.30023e-24)
(-0.000123695 0.000332841 -4.28735e-24)
(-9.97429e-05 0.000322295 3.954e-24)
(-6.97686e-05 0.00030965 -3.63043e-24)
(-3.30204e-05 0.000294888 2.00311e-23)
(1.12531e-05 0.000277937 -4.21286e-27)
(6.42212e-05 0.000258794 -8.4276e-24)
(0.000123403 0.000235822 9.75393e-27)
(0.000208176 0.000216698 9.34955e-24)
(-7.31747e-06 1.82481e-05 -6.46268e-24)
(-2.13345e-05 5.25046e-05 8.90938e-24)
(-3.52754e-05 8.56213e-05 0)
(-4.90722e-05 0.000117444 -8.0352e-24)
(-6.26408e-05 0.000147822 3.78377e-24)
(-7.58876e-05 0.000176604 0)
(-8.87072e-05 0.000203648 3.39932e-24)
(-0.000100979 0.000228818 -3.19882e-24)
(-0.000112563 0.000251991 -2.98321e-24)
(-0.000123303 0.000273057 -2.79851e-24)
(-0.000133022 0.000291918 2.62104e-24)
(-0.000141521 0.000308493 -9.83565e-24)
(-0.000148581 0.000322723 9.18272e-24)
(-0.000153949 0.000334562 4.2929e-24)
(-0.00015735 0.000343982 -7.97003e-24)
(-0.000158479 0.000350975 1.94491e-26)
(-0.000157001 0.000355546 -6.87795e-24)
(-0.000152552 0.000357718 -6.361e-24)
(-0.000144726 0.000357523 5.90234e-24)
(-0.000133079 0.000355 5.47031e-24)
(-0.000117122 0.000350191 1.01124e-23)
(-9.63233e-05 0.000343134 -9.32116e-24)
(-7.00949e-05 0.000333856 0)
(-3.7794e-05 0.00032237 -7.91121e-24)
(1.28512e-06 0.000308666 -3.65072e-24)
(4.79386e-05 0.000292718 -3.32741e-24)
(0.000102954 0.000274444 9.2163e-24)
(0.000167481 0.000253815 -5.63158e-24)
(0.000239261 0.000229296 -5.11988e-24)
(0.000338768 0.00020882 4.70066e-24)
(-7.88792e-06 1.83058e-05 -2.16716e-24)
(-2.28709e-05 5.2693e-05 2.25934e-24)
(-3.75894e-05 8.5966e-05 -2.14648e-24)
(-5.19557e-05 0.000117963 -2.03492e-24)
(-6.58667e-05 0.000148524 3.81781e-24)
(-7.92075e-05 0.000177492 1.0877e-23)
(-9.185e-05 0.000204713 -1.36513e-23)
(-0.00010365 0.000230044 3.19886e-24)
(-0.000114445 0.000253354 -3.00387e-24)
(-0.000124055 0.000274524 1.13122e-23)
(-0.000132279 0.00029345 -1.05904e-23)
(-0.000138893 0.000310048 4.93649e-24)
(-0.000143647 0.000324244 -1.38554e-23)
(-0.000146269 0.000335986 -8.60535e-24)
(-0.000146458 0.000345241 1.60333e-23)
(-0.000143885 0.000351997 3.73102e-24)
(-0.00013819 0.000356255 -1.38507e-23)
(-0.000128977 0.000358034 1.2833e-23)
(-0.000115813 0.000357362 -5.93937e-24)
(-9.82241e-05 0.000354276 -5.50113e-24)
(-7.56924e-05 0.000348815 1.92305e-26)
(-4.7651e-05 0.000341013 0)
(-1.34796e-05 0.000330897 4.32044e-24)
(2.75012e-05 0.000318474 0)
(7.60362e-05 0.000303731 7.29553e-24)
(0.000132964 0.000286637 1.65866e-26)
(0.000199108 0.000267095 0)
(0.000275638 0.000245064 1.17806e-26)
(0.000360317 0.000218988 -5.13456e-24)
(0.000475063 0.000197447 4.70674e-24)
(-8.41048e-06 1.82225e-05 0)
(-2.42716e-05 5.24685e-05 -2.25934e-24)
(-3.96857e-05 8.56282e-05 -6.47848e-24)
(-5.4544e-05 0.000117533 1.43167e-23)
(-6.87227e-05 0.000148016 -1.16171e-23)
(-8.20838e-05 0.000176912 -3.63427e-24)
(-9.44749e-05 0.000204061 1.03081e-23)
(-0.000105727 0.000229315 -3.24889e-24)
(-0.000115652 0.000252532 3.04832e-24)
(-0.000124044 0.000273588 -5.69875e-24)
(-0.000130675 0.000292372 5.32989e-24)
(-0.000135295 0.00030879 -4.98453e-24)
(-0.000137627 0.000322765 -2.93951e-26)
(-0.000137374 0.000334241 4.94613e-27)
(-0.000134208 0.00034318 4.04599e-24)
(-0.000127772 0.000349565 0)
(-0.000117675 0.000353393 6.93197e-24)
(-0.000103495 0.000354678 -6.42546e-24)
(-8.47687e-05 0.000353448 0)
(-6.09918e-05 0.000349736 5.50086e-24)
(-3.1615e-05 0.000343579 5.69488e-27)
(3.96093e-06 0.000335011 -4.69967e-24)
(4.63902e-05 0.000324054 -1.29878e-23)
(9.63875e-05 0.000310715 -7.97715e-24)
(0.000154734 0.000294976 0)
(0.00022231 0.000276798 -6.71957e-24)
(0.000299972 0.000256072 0)
(0.000388933 0.000232751 -5.65333e-24)
(0.000486847 0.000205154 0)
(0.000617327 0.000182885 -9.33293e-24)
(-8.87907e-06 1.80104e-05 0)
(-2.55177e-05 5.18639e-05 0)
(-4.1532e-05 8.46575e-05 0)
(-5.67908e-05 0.000116218 -8.24924e-24)
(-7.11478e-05 0.000146372 1.16834e-23)
(-8.44407e-05 0.000174948 -7.36491e-24)
(-9.64908e-05 0.000201783 3.48282e-24)
(-0.000107102 0.000226721 6.52354e-24)
(-0.00011606 0.000249617 0)
(-0.00012313 0.00027034 -5.76e-24)
(-0.000128056 0.000288772 1.07327e-23)
(-0.00013056 0.000304816 -1.16902e-26)
(-0.000130339 0.00031839 -5.60186e-27)
(-0.000127065 0.000329434 -4.34443e-24)
(-0.000120382 0.000337906 4.06476e-24)
(-0.000109902 0.000343785 0)
(-9.52068e-05 0.000347065 -1.39808e-23)
(-7.58417e-05 0.000347761 1.29418e-23)
(-5.13135e-05 0.000345895 -5.9932e-24)
(-2.10869e-05 0.000341501 0)
(1.54195e-05 0.000334616 -5.10459e-24)
(5.88379e-05 0.000325271 4.71632e-24)
(0.000109856 0.000313488 4.33111e-24)
(0.000169222 0.000299272 3.97613e-24)
(0.000237753 0.000282601 0)
(0.000316366 0.000263433 6.74969e-24)
(0.000405949 0.000241642 0)
(0.000507772 0.000217179 0)
(0.000619259 0.00018816 5.24758e-24)
(0.000765995 0.000165522 9.31577e-24)
(-9.28861e-06 1.76821e-05 0)
(-2.65927e-05 5.09131e-05 0)
(-4.30983e-05 8.31072e-05 0)
(-5.86511e-05 0.000114087 8.32388e-24)
(-7.30809e-05 0.000143675 7.86736e-24)
(-8.61994e-05 0.000171697 -1.11581e-23)
(-9.78005e-05 0.000197985 3.5085e-24)
(-0.00010766 0.000222379 -6.5521e-24)
(-0.000115534 0.000244731 6.16737e-24)
(-0.000121159 0.000264906 -1.15801e-23)
(-0.000124249 0.000282783 1.46415e-26)
(-0.000124496 0.000298261 1.49819e-26)
(-0.000121569 0.000311255 4.73146e-24)
(-0.000115107 0.000321702 0)
(-0.000104723 0.00032956 -1.22102e-23)
(-8.99998e-05 0.000334802 7.57756e-24)
(-7.04864e-05 0.000337425 7.00207e-24)
(-4.56965e-05 0.000337439 -6.51709e-24)
(-1.51049e-05 0.00033487 6.02734e-24)
(2.1856e-05 0.000329749 -5.55066e-24)
(6.58004e-05 0.000322115 1.02565e-23)
(0.000117393 0.000311999 -4.73295e-24)
(0.000177355 0.000299425 0)
(0.000246467 0.000284396 1.59996e-23)
(0.000325579 0.000266889 -1.47387e-23)
(0.000415641 0.000246856 -7.12155e-28)
(0.000517566 0.000224157 -6.20334e-24)
(0.000632672 0.000198747 -5.67041e-24)
(0.000758096 0.000168459 -5.18441e-24)
(0.000921632 0.000145858 0)
(-9.63487e-06 1.72496e-05 0)
(-2.74818e-05 4.96496e-05 0)
(-4.43576e-05 8.10299e-05 4.40978e-24)
(-6.00834e-05 0.000111211 -8.36424e-24)
(-7.4464e-05 0.000140012 -7.93649e-24)
(-8.72842e-05 0.000167258 1.12233e-23)
(-9.83088e-05 0.000192777 -3.54158e-24)
(-0.000107284 0.00021641 -6.62925e-24)
(-0.000113936 0.000238006 3.12201e-24)
(-0.00011797 0.000257428 0)
(-0.000119069 0.000274553 1.0884e-23)
(-0.000116895 0.00028928 -1.01787e-23)
(-0.000111082 0.000301522 0)
(-0.000101239 0.000311215 0)
(-8.6945e-05 0.000318316 -4.11275e-24)
(-6.77505e-05 0.0003228 -7.63346e-24)
(-4.31713e-05 0.000324663 7.07472e-24)
(-1.26879e-05 0.000323917 6.51707e-24)
(2.42584e-05 0.000320587 -1.20816e-23)
(6.82688e-05 0.00031471 -5.59065e-24)
(0.000119991 0.000306323 5.15675e-24)
(0.000180122 0.000295465 -4.73739e-24)
(0.000249414 0.000282158 4.37249e-24)
(0.00032868 0.000266409 0)
(0.000418797 0.000248193 1.04098e-27)
(0.000520742 0.000227462 2.03152e-23)
(0.000635431 0.000204058 -6.21307e-24)
(0.000764258 0.000177943 0)
(0.00090399 0.00014659 1.04107e-23)
(0.00108486 0.000124492 -9.30486e-24)
(-9.91424e-06 1.67244e-05 0)
(-2.8172e-05 4.81056e-05 -9.42777e-24)
(-4.52846e-05 7.8477e-05 8.9128e-24)
(-6.10478e-05 0.000107658 4.25381e-24)
(-7.52406e-05 0.000135468 -8.01578e-24)
(-8.76193e-05 0.00016173 -3.75665e-24)
(-9.79191e-05 0.000186275 1.77679e-23)
(-0.000105855 0.000208943 -1.67175e-23)
(-0.000111122 0.000229581 9.42592e-24)
(-0.000113394 0.000248056 5.89255e-24)
(-0.000112321 0.000264244 5.50729e-24)
(-0.00010753 0.000278045 0)
(-9.86232e-05 0.000289373 -9.53222e-24)
(-8.51744e-05 0.000298167 8.89024e-24)
(-6.67296e-05 0.000304382 1.23525e-23)
(-4.28035e-05 0.000307998 -7.70862e-24)
(-1.28775e-05 0.000309012 3.75242e-26)
(2.36026e-05 0.00030744 -6.55551e-24)
(6.72306e-05 0.000303311 6.04938e-24)
(0.000118642 0.000296665 5.59074e-24)
(0.000178517 0.000287546 1.94659e-26)
(0.000247587 0.000275996 0)
(0.000326632 0.000262045 8.77324e-24)
(0.000416492 0.000245701 0)
(0.00051806 0.000226943 7.40206e-24)
(0.000632327 0.000205724 1.38108e-26)
(0.000760223 0.000181865 6.20423e-24)
(0.000903203 0.000155337 -1.41121e-26)
(0.0010576 0.000123174 -2.07604e-23)
(0.00125628 0.000102114 1.40119e-23)
(-1.01234e-05 1.6117e-05 0)
(-2.8651e-05 4.6311e-05 -9.51878e-24)
(-4.58549e-05 7.54968e-05 2.25706e-23)
(-6.15051e-05 0.000103495 -4.26287e-24)
(-7.53536e-05 0.000130126 0)
(-8.71277e-05 0.000155215 3.40754e-26)
(-9.65318e-05 0.000178594 1.4338e-23)
(-0.000103249 0.000200105 -1.34915e-23)
(-0.000106943 0.000219601 -6.28114e-24)
(-0.000107252 0.000236949 5.95095e-24)
(-0.000103793 0.000252029 -2.20996e-23)
(-9.61601e-05 0.000264743 2.58059e-23)
(-8.39176e-05 0.000275011 -1.9217e-23)
(-6.66051e-05 0.000282772 4.46625e-24)
(-4.3732e-05 0.000287988 -8.28877e-24)
(-1.4777e-05 0.000290641 7.70042e-24)
(2.08146e-05 0.000290736 7.18146e-24)
(6.36337e-05 0.000288292 -6.58704e-24)
(0.00011431 0.000283345 6.07784e-24)
(0.000173513 0.000275943 -5.61688e-24)
(0.000241957 0.000266138 1.87451e-26)
(0.000320402 0.000253978 0)
(0.000409657 0.000239502 -8.77249e-24)
(0.000510571 0.000222729 2.43035e-26)
(0.00062405 0.000203639 2.15126e-26)
(0.000751099 0.000182186 6.7954e-24)
(0.000892637 0.000158168 -6.23193e-24)
(0.00105017 0.00013157 1.1396e-23)
(0.00121953 9.89069e-05 1.04304e-23)
(0.00143638 7.94833e-05 0)
(-1.02592e-05 1.54367e-05 9.32507e-24)
(-2.89061e-05 4.42925e-05 -2.41642e-24)
(-4.60434e-05 7.21337e-05 0)
(-6.14146e-05 9.87835e-05 -4.29859e-24)
(-7.4744e-05 0.000124064 0)
(-8.57291e-05 0.000147806 -3.82916e-24)
(-9.4043e-05 0.000169845 0)
(-9.93364e-05 0.000190028 -1.01674e-23)
(-0.000101238 0.000208212 -6.31751e-24)
(-9.93541e-05 0.00022427 1.79272e-23)
(-9.3266e-05 0.000238088 5.54925e-24)
(-8.25294e-05 0.000249573 -1.55526e-23)
(-6.66741e-05 0.00025865 2.87974e-26)
(-4.52018e-05 0.000265265 2.2477e-23)
(-1.75848e-05 0.000269387 -2.74495e-26)
(1.67359e-05 0.000271006 -1.5526e-23)
(5.83529e-05 0.000270131 -7.15135e-24)
(0.000107894 0.000266793 0)
(0.000166026 0.000261036 6.1105e-24)
(0.000233452 0.000252918 5.64034e-24)
(0.000310919 0.0002425 -1.04344e-23)
(0.000399213 0.000229845 0)
(0.000499152 0.000215006 -8.82613e-24)
(0.000611602 0.000198008 -8.08072e-24)
(0.000737469 0.00017884 -7.41061e-24)
(0.000877749 0.000157456 -6.7717e-24)
(0.00103333 0.000133626 6.24166e-24)
(0.00120575 0.00010735 -1.13911e-23)
(0.00139029 7.45395e-05 1.49893e-26)
(0.00162546 5.74063e-05 9.25197e-24)
(-1.03178e-05 1.46913e-05 0)
(-2.89238e-05 4.20736e-05 -2.44493e-26)
(-4.58233e-05 6.84267e-05 -1.38379e-23)
(-6.0733e-05 9.35784e-05 4.34587e-24)
(-7.33492e-05 0.000117356 0)
(-8.33389e-05 0.000139593 1.94131e-23)
(-9.03432e-05 0.000160136 -3.28816e-23)
(-9.39795e-05 0.000178836 6.87223e-24)
(-9.38426e-05 0.000195558 -1.28359e-23)
(-8.95031e-05 0.000210183 6.05225e-24)
(-8.05059e-05 0.000222605 0)
(-6.63697e-05 0.000232738 0)
(-4.65866e-05 0.000240516 -4.89075e-24)
(-2.062e-05 0.000245894 4.54501e-24)
(1.20966e-05 0.000248851 0)
(5.21609e-05 0.000249386 7.7684e-24)
(0.000100204 0.000247519 0)
(0.000156892 0.000243292 1.33386e-23)
(0.000222927 0.000236761 -6.16792e-24)
(0.000299048 0.000227997 0)
(0.000386025 0.000217077 -5.26059e-24)
(0.000484658 0.000204081 0)
(0.000595783 0.000189075 1.76765e-23)
(0.000720263 0.000172101 8.12589e-24)
(0.000858986 0.000153156 7.4507e-24)
(0.00101291 0.000132193 0)
(0.00118286 0.000108949 1.79727e-26)
(0.00137038 8.34307e-05 5.71748e-24)
(0.0015702 5.08698e-05 -1.04357e-23)
(0.0018235 3.67072e-05 -9.24703e-24)
(-1.02951e-05 1.38871e-05 9.5175e-24)
(-2.86886e-05 3.96736e-05 -2.49132e-24)
(-4.5165e-05 6.44099e-05 -4.70303e-26)
(-5.94135e-05 8.79295e-05 1.31817e-23)
(-7.1102e-05 0.000110066 -1.25037e-23)
(-7.98668e-05 0.000130661 -3.90036e-24)
(-8.53163e-05 0.000149569 -3.41473e-26)
(-8.70345e-05 0.000166651 -3.11665e-26)
(-8.45812e-05 0.000181782 0)
(-7.74909e-05 0.000194851 -1.21058e-23)
(-6.52709e-05 0.000205765 1.69556e-23)
(-4.74026e-05 0.000214447 -1.05687e-23)
(-2.33389e-05 0.000220842 9.81861e-24)
(7.4957e-06 0.000224919 -4.54524e-24)
(4.57074e-05 0.000226666 0)
(9.19335e-05 0.000226095 7.86662e-24)
(0.000146844 0.000223243 -3.74478e-26)
(0.000211143 0.000218162 -6.68128e-24)
(0.000285566 0.000210925 6.17289e-24)
(0.000370879 0.000201621 -5.71466e-24)
(0.000467872 0.000190347 2.09946e-23)
(0.000577364 0.000177201 -1.9303e-23)
(0.000700187 0.000162268 8.88289e-24)
(0.000837184 0.000145612 -3.25445e-23)
(0.000989198 0.000127239 -1.4884e-23)
(0.00115712 0.000107104 2.98548e-26)
(0.00134167 8.4897e-05 1.25325e-23)
(0.00154432 6.06093e-05 1.71421e-23)
(0.00175933 2.8728e-05 -5.23363e-24)
(0.00203007 1.81917e-05 0)
(-1.01858e-05 1.3029e-05 -9.61829e-24)
(-2.81827e-05 3.71083e-05 -5.21748e-26)
(-4.40348e-05 6.01113e-05 4.6774e-24)
(-5.74041e-05 8.18792e-05 4.41635e-24)
(-6.79292e-05 0.000102253 -2.1009e-23)
(-7.52157e-05 0.000121085 3.16524e-23)
(-7.88392e-05 0.000138239 -2.232e-23)
(-7.83496e-05 0.000153589 3.49109e-23)
(-7.32715e-05 0.00016702 -1.30997e-23)
(-6.31019e-05 0.000178436 -1.835e-23)
(-4.73114e-05 0.000187753 1.14553e-23)
(-2.53422e-05 0.00019491 4.04361e-26)
(3.39171e-06 0.000199867 4.98529e-24)
(3.95059e-05 0.000202604 0)
(8.36463e-05 0.000203127 8.50376e-24)
(0.00013649 0.000201462 -7.85875e-24)
(0.000198745 0.000197661 1.46006e-23)
(0.000271152 0.000191796 -6.7225e-24)
(0.000354473 0.000183959 -6.20339e-24)
(0.000449498 0.000174259 -5.71497e-24)
(0.000557038 0.000162813 -1.57493e-23)
(0.000677912 0.000149746 1.93812e-23)
(0.000812936 0.000135168 8.87523e-24)
(0.000962911 0.000119167 -6.77866e-26)
(0.0011286 0.000101767 -2.96871e-26)
(0.00131077 8.29239e-05 0)
(0.00150999 6.22663e-05 2.87977e-26)
(0.00172758 3.97159e-05 -2.28816e-23)
(0.0019575 8.9676e-06 5.13108e-24)
(0.00224425 2.59517e-06 -9.4317e-24)
(-9.98348e-06 1.21205e-05 7.46901e-27)
(-2.73852e-05 3.43899e-05 1.50147e-23)
(-4.23949e-05 5.55545e-05 0)
(-5.46469e-05 7.54642e-05 8.98944e-24)