/*--------------------------------*- C++ -*----------------------------------*\
| =========                 |                                                 |
| \\      /  F ield         | foam-extend: Open Source CFD                    |
|  \\    /   O peration     | Version:     4.0                                |
|   \\  /    A nd           | Web:         http://www.foam-extend.org         |
|    \\/     M anipulation  |                                                 |
\*---------------------------------------------------------------------------*/
FoamFile
{
    version     2.0;
    format      ascii;
    class       volScalarField;
    location    "70";
    object      p;
}
// * * * * * * * * * * * * * * * * * * * * * * * * * * * * * * * * * * * * * //

dimensions      [0 2 -2 0 0 0 0];

internalField   nonuniform List<scalar> 
36000
(
-7.48631e-06
-7.52371e-06
-7.56332e-06
-7.59993e-06
-7.63407e-06
-7.66635e-06
-7.69686e-06
-7.72552e-06
-7.75234e-06
-7.77733e-06
-7.80056e-06
-7.82211e-06
-7.84207e-06
-7.86054e-06
-7.87761e-06
-7.89337e-06
-7.90783e-06
-7.921e-06
-7.9328e-06
-7.94308e-06
-7.95159e-06
-7.95794e-06
-7.96159e-06
-7.96182e-06
-7.9577e-06
-7.94802e-06
-7.93135e-06
-7.90589e-06
-7.86924e-06
-7.81861e-06
-7.49793e-06
-7.53482e-06
-7.5739e-06
-7.61004e-06
-7.64374e-06
-7.67562e-06
-7.70576e-06
-7.73408e-06
-7.76058e-06
-7.78529e-06
-7.80827e-06
-7.82959e-06
-7.84936e-06
-7.86766e-06
-7.8846e-06
-7.90024e-06
-7.91463e-06
-7.92775e-06
-7.93954e-06
-7.94985e-06
-7.95843e-06
-7.9649e-06
-7.96872e-06
-7.96918e-06
-7.96535e-06
-7.95605e-06
-7.93985e-06
-7.91504e-06
-7.87895e-06
-7.82753e-06
-7.52097e-06
-7.55686e-06
-7.5949e-06
-7.6301e-06
-7.66294e-06
-7.69403e-06
-7.72342e-06
-7.75107e-06
-7.77695e-06
-7.80109e-06
-7.82357e-06
-7.84444e-06
-7.86382e-06
-7.88178e-06
-7.89844e-06
-7.91386e-06
-7.92808e-06
-7.9411e-06
-7.95286e-06
-7.96322e-06
-7.97193e-06
-7.97862e-06
-7.98277e-06
-7.98367e-06
-7.98042e-06
-7.97183e-06
-7.95656e-06
-7.933e-06
-7.89803e-06
-7.845e-06
-7.55502e-06
-7.58945e-06
-7.62595e-06
-7.65976e-06
-7.69134e-06
-7.72125e-06
-7.74955e-06
-7.77619e-06
-7.80115e-06
-7.82446e-06
-7.84618e-06
-7.86638e-06
-7.88516e-06
-7.90262e-06
-7.91885e-06
-7.93392e-06
-7.94787e-06
-7.96073e-06
-7.97242e-06
-7.98282e-06
-7.9917e-06
-7.99869e-06
-8.00329e-06
-8.00481e-06
-8.00236e-06
-7.99479e-06
-7.98083e-06
-7.95905e-06
-7.92572e-06
-7.87029e-06
-7.59948e-06
-7.63201e-06
-7.66653e-06
-7.69854e-06
-7.72847e-06
-7.75685e-06
-7.78373e-06
-7.80905e-06
-7.8328e-06
-7.855e-06
-7.87572e-06
-7.89502e-06
-7.91301e-06
-7.92977e-06
-7.9454e-06
-7.95998e-06
-7.97357e-06
-7.98616e-06
-7.99773e-06
-8.00814e-06
-8.01718e-06
-8.02451e-06
-8.02963e-06
-8.0319e-06
-8.03043e-06
-8.02411e-06
-8.01176e-06
-7.99217e-06
-7.9611e-06
-7.9023e-06
-7.65357e-06
-7.68381e-06
-7.71595e-06
-7.74579e-06
-7.77373e-06
-7.80025e-06
-7.82539e-06
-7.84911e-06
-7.87137e-06
-7.89221e-06
-7.91169e-06
-7.92987e-06
-7.94685e-06
-7.96273e-06
-7.97759e-06
-7.99153e-06
-8.0046e-06
-8.01682e-06
-8.02817e-06
-8.03852e-06
-8.04768e-06
-8.05533e-06
-8.061e-06
-8.06406e-06
-8.06367e-06
-8.05874e-06
-8.04822e-06
-8.03114e-06
-8.00294e-06
-7.93949e-06
-7.71638e-06
-7.74402e-06
-7.77343e-06
-7.80077e-06
-7.82641e-06
-7.85078e-06
-7.87391e-06
-7.89575e-06
-7.91627e-06
-7.93551e-06
-7.95351e-06
-7.97034e-06
-7.98611e-06
-8.0009e-06
-8.01481e-06
-8.02793e-06
-8.04032e-06
-8.05203e-06
-8.06302e-06
-8.0732e-06
-8.08239e-06
-8.09029e-06
-8.09646e-06
-8.10029e-06
-8.10099e-06
-8.09751e-06
-8.08891e-06
-8.0745e-06
-8.04965e-06
-7.98012e-06
-7.78691e-06
-7.81168e-06
-7.83807e-06
-7.86265e-06
-7.88574e-06
-7.90771e-06
-7.92858e-06
-7.9483e-06
-7.96684e-06
-7.98424e-06
-8.00054e-06
-8.01581e-06
-8.03014e-06
-8.04363e-06
-8.05639e-06
-8.0685e-06
-8.08003e-06
-8.09104e-06
-8.10151e-06
-8.11137e-06
-8.12044e-06
-8.12845e-06
-8.135e-06
-8.13952e-06
-8.14124e-06
-8.13919e-06
-8.1325e-06
-8.12063e-06
-8.09958e-06
-8.02198e-06
-7.86408e-06
-7.88578e-06
-7.90894e-06
-7.93055e-06
-7.95088e-06
-7.97023e-06
-7.98863e-06
-8.00602e-06
-8.02238e-06
-8.03773e-06
-8.05211e-06
-8.0656e-06
-8.07828e-06
-8.09026e-06
-8.10164e-06
-8.11253e-06
-8.123e-06
-8.1331e-06
-8.14285e-06
-8.15217e-06
-8.16093e-06
-8.16886e-06
-8.17561e-06
-8.18066e-06
-8.18329e-06
-8.18248e-06
-8.17751e-06
-8.16798e-06
-8.15164e-06
-8.06167e-06
-7.9468e-06
-7.9653e-06
-7.98508e-06
-8.00357e-06
-8.02097e-06
-8.03756e-06
-8.05331e-06
-8.06819e-06
-8.08217e-06
-8.09528e-06
-8.10754e-06
-8.11904e-06
-8.12986e-06
-8.1401e-06
-8.14989e-06
-8.15932e-06
-8.16849e-06
-8.17745e-06
-8.18623e-06
-8.19478e-06
-8.20297e-06
-8.21059e-06
-8.21732e-06
-8.22266e-06
-8.2259e-06
-8.22604e-06
-8.22239e-06
-8.21493e-06
-8.2057e-06
-8.09389e-06
-8.03398e-06
-8.04922e-06
-8.06554e-06
-8.08081e-06
-8.09519e-06
-8.10888e-06
-8.12186e-06
-8.13408e-06
-8.14553e-06
-8.15621e-06
-8.16617e-06
-8.17547e-06
-8.18421e-06
-8.1925e-06
-8.20046e-06
-8.2082e-06
-8.21581e-06
-8.22337e-06
-8.23091e-06
-8.2384e-06
-8.24576e-06
-8.25278e-06
-8.25916e-06
-8.26444e-06
-8.26798e-06
-8.26875e-06
-8.26587e-06
-8.25917e-06
-8.26199e-06
-8.11653e-06
-8.12459e-06
-8.13657e-06
-8.14941e-06
-8.16144e-06
-8.17273e-06
-8.18345e-06
-8.19356e-06
-8.20301e-06
-8.21178e-06
-8.21989e-06
-8.22736e-06
-8.23428e-06
-8.24075e-06
-8.24687e-06
-8.25277e-06
-8.25856e-06
-8.26435e-06
-8.27021e-06
-8.27622e-06
-8.28235e-06
-8.28851e-06
-8.29457e-06
-8.30025e-06
-8.30514e-06
-8.30863e-06
-8.30973e-06
-8.30734e-06
-8.29903e-06
-8.31205e-06
-8.157e-06
-8.21767e-06
-8.22645e-06
-8.23586e-06
-8.24465e-06
-8.25286e-06
-8.26057e-06
-8.26774e-06
-8.27434e-06
-8.28034e-06
-8.28573e-06
-8.29057e-06
-8.29494e-06
-8.29893e-06
-8.30268e-06
-8.30628e-06
-8.30986e-06
-8.31354e-06
-8.3174e-06
-8.32153e-06
-8.32593e-06
-8.33056e-06
-8.33532e-06
-8.33996e-06
-8.3441e-06
-8.34714e-06
-8.34814e-06
-8.34641e-06
-8.34107e-06
-8.34572e-06
-8.20169e-06
-8.31238e-06
-8.31808e-06
-8.32416e-06
-8.32978e-06
-8.33493e-06
-8.33963e-06
-8.34384e-06
-8.34752e-06
-8.35066e-06
-8.35324e-06
-8.35531e-06
-8.35698e-06
-8.35835e-06
-8.3595e-06
-8.36055e-06
-8.36164e-06
-8.36289e-06
-8.36444e-06
-8.36635e-06
-8.3687e-06
-8.37147e-06
-8.37458e-06
-8.37782e-06
-8.38081e-06
-8.38301e-06
-8.38351e-06
-8.38198e-06
-8.37785e-06
-8.37765e-06
-8.23717e-06
-8.40801e-06
-8.41078e-06
-8.41367e-06
-8.41623e-06
-8.4184e-06
-8.42014e-06
-8.4214e-06
-8.42214e-06
-8.42235e-06
-8.42203e-06
-8.42125e-06
-8.4201e-06
-8.41863e-06
-8.41694e-06
-8.41517e-06
-8.41349e-06
-8.41204e-06
-8.41096e-06
-8.41038e-06
-8.41037e-06
-8.41095e-06
-8.41206e-06
-8.41351e-06
-8.41498e-06
-8.41594e-06
-8.41552e-06
-8.41356e-06
-8.40955e-06
-8.40741e-06
-8.26358e-06
-8.50398e-06
-8.50399e-06
-8.50389e-06
-8.50353e-06
-8.50282e-06
-8.50168e-06
-8.50004e-06
-8.49785e-06
-8.49509e-06
-8.49183e-06
-8.4881e-06
-8.48392e-06
-8.47938e-06
-8.47463e-06
-8.46985e-06
-8.46518e-06
-8.46079e-06
-8.45684e-06
-8.45347e-06
-8.45079e-06
-8.44884e-06
-8.44759e-06
-8.44691e-06
-8.44649e-06
-8.44582e-06
-8.44408e-06
-8.44121e-06
-8.43671e-06
-8.43351e-06
-8.28279e-06
-8.59986e-06
-8.59734e-06
-8.59442e-06
-8.59129e-06
-8.58782e-06
-8.58388e-06
-8.57939e-06
-8.5743e-06
-8.56861e-06
-8.56231e-06
-8.55547e-06
-8.54814e-06
-8.54045e-06
-8.53253e-06
-8.52455e-06
-8.51669e-06
-8.50912e-06
-8.50203e-06
-8.49559e-06
-8.48994e-06
-8.48515e-06
-8.48123e-06
-8.47808e-06
-8.47542e-06
-8.47277e-06
-8.46933e-06
-8.46514e-06
-8.45965e-06
-8.45562e-06
-8.29543e-06
-8.69543e-06
-8.6906e-06
-8.68508e-06
-8.67936e-06
-8.67326e-06
-8.66661e-06
-8.65931e-06
-8.65134e-06
-8.64268e-06
-8.63334e-06
-8.62336e-06
-8.61283e-06
-8.60187e-06
-8.59064e-06
-8.5793e-06
-8.56805e-06
-8.55708e-06
-8.54661e-06
-8.53685e-06
-8.52796e-06
-8.52006e-06
-8.51318e-06
-8.50725e-06
-8.50204e-06
-8.4971e-06
-8.49163e-06
-8.48574e-06
-8.47882e-06
-8.47402e-06
-8.30211e-06
-8.79063e-06
-8.78371e-06
-8.77581e-06
-8.76768e-06
-8.75909e-06
-8.74983e-06
-8.73982e-06
-8.72901e-06
-8.71739e-06
-8.70498e-06
-8.69182e-06
-8.67802e-06
-8.6637e-06
-8.64903e-06
-8.63418e-06
-8.61936e-06
-8.60481e-06
-8.59077e-06
-8.57747e-06
-8.56512e-06
-8.55386e-06
-8.54377e-06
-8.53481e-06
-8.52679e-06
-8.51928e-06
-8.51148e-06
-8.50358e-06
-8.49485e-06
-8.48925e-06
-8.30344e-06
-8.88556e-06
-8.87675e-06
-8.86669e-06
-8.85631e-06
-8.84536e-06
-8.83361e-06
-8.82095e-06
-8.80735e-06
-8.7928e-06
-8.77732e-06
-8.76097e-06
-8.74384e-06
-8.72609e-06
-8.70787e-06
-8.68938e-06
-8.67086e-06
-8.65258e-06
-8.6348e-06
-8.61779e-06
-8.60179e-06
-8.58698e-06
-8.57348e-06
-8.56128e-06
-8.55022e-06
-8.5399e-06
-8.52954e-06
-8.51934e-06
-8.50845e-06
-8.50198e-06
-8.30007e-06
-8.98044e-06
-8.96994e-06
-8.9579e-06
-8.94543e-06
-8.93226e-06
-8.91811e-06
-8.90288e-06
-8.88655e-06
-8.8691e-06
-8.85055e-06
-8.83098e-06
-8.8105e-06
-8.78925e-06
-8.7674e-06
-8.74518e-06
-8.72286e-06
-8.70074e-06
-8.6791e-06
-8.65825e-06
-8.63845e-06
-8.61994e-06
-8.60286e-06
-8.58725e-06
-8.57299e-06
-8.55968e-06
-8.5465e-06
-8.53373e-06
-8.52037e-06
-8.51296e-06
-8.29269e-06
-9.07565e-06
-9.06362e-06
-9.04976e-06
-9.03533e-06
-9.02004e-06
-9.00359e-06
-8.98586e-06
-8.96684e-06
-8.94651e-06
-8.92492e-06
-8.90213e-06
-8.87827e-06
-8.85347e-06
-8.82794e-06
-8.80194e-06
-8.77576e-06
-8.74971e-06
-8.72412e-06
-8.69932e-06
-8.67563e-06
-8.65331e-06
-8.63255e-06
-8.61342e-06
-8.5958e-06
-8.5793e-06
-8.56309e-06
-8.5475e-06
-8.53133e-06
-8.52286e-06
-8.28213e-06
-9.17166e-06
-9.15823e-06
-9.14267e-06
-9.12639e-06
-9.10907e-06
-9.09038e-06
-9.07021e-06
-9.04854e-06
-9.02537e-06
-9.00074e-06
-8.97474e-06
-8.94747e-06
-8.91911e-06
-8.88988e-06
-8.86006e-06
-8.82997e-06
-8.79995e-06
-8.77036e-06
-8.74157e-06
-8.71393e-06
-8.68773e-06
-8.66321e-06
-8.64046e-06
-8.61935e-06
-8.59949e-06
-8.58002e-06
-8.56131e-06
-8.54196e-06
-8.5322e-06
-8.26925e-06
-9.26902e-06
-9.25427e-06
-9.2371e-06
-9.21904e-06
-9.19975e-06
-9.17887e-06
-9.1563e-06
-9.13201e-06
-9.10602e-06
-9.07838e-06
-9.04916e-06
-9.01848e-06
-8.98656e-06
-8.95363e-06
-8.91999e-06
-8.88598e-06
-8.85197e-06
-8.81836e-06
-8.78556e-06
-8.75394e-06
-8.72385e-06
-8.69551e-06
-8.66902e-06
-8.64429e-06
-8.62091e-06
-8.59794e-06
-8.57577e-06
-8.55279e-06
-8.54125e-06
-8.25501e-06
-9.36833e-06
-9.35231e-06
-9.33358e-06
-9.31378e-06
-9.29254e-06
-9.2695e-06
-9.24455e-06
-9.21767e-06
-9.18888e-06
-9.15822e-06
-9.12578e-06
-9.09172e-06
-9.05624e-06
-9.01962e-06
-8.98217e-06
-8.94425e-06
-8.90627e-06
-8.86866e-06
-8.83186e-06
-8.79627e-06
-8.76225e-06
-8.73004e-06
-8.69975e-06
-8.67126e-06
-8.64415e-06
-8.61739e-06
-8.59133e-06
-8.56414e-06
-8.54998e-06
-8.24068e-06
-9.47024e-06
-9.45294e-06
-9.43265e-06
-9.41111e-06
-9.38793e-06
-9.36273e-06
-9.3354e-06
-9.30592e-06
-9.27433e-06
-9.24067e-06
-9.20503e-06
-9.16759e-06
-9.12859e-06
-9.0883e-06
-9.04706e-06
-9.00527e-06
-8.96336e-06
-8.92179e-06
-8.88102e-06
-8.84147e-06
-8.8035e-06
-8.76737e-06
-8.73318e-06
-8.70081e-06
-8.66973e-06
-8.63882e-06
-8.60833e-06
-8.57624e-06
-8.55799e-06
-8.2282e-06
-9.57537e-06
-9.55676e-06
-9.53486e-06
-9.51154e-06
-9.48639e-06
-9.45901e-06
-9.42928e-06
-9.39721e-06
-9.3628e-06
-9.32613e-06
-9.2873e-06
-9.24652e-06
-9.20401e-06
-9.16008e-06
-9.11511e-06
-9.0695e-06
-9.02372e-06
-8.97824e-06
-8.93352e-06
-8.89001e-06
-8.84808e-06
-8.80799e-06
-8.76982e-06
-8.73338e-06
-8.69806e-06
-8.66261e-06
-8.62702e-06
-8.58914e-06
-8.56338e-06
-8.21896e-06
-9.68433e-06
-9.66433e-06
-9.64075e-06
-9.61559e-06
-9.5884e-06
-9.55879e-06
-9.52663e-06
-9.49192e-06
-9.45469e-06
-9.415e-06
-9.373e-06
-9.32888e-06
-9.2829e-06
-9.23539e-06
-9.18674e-06
-9.13737e-06
-9.08777e-06
-9.03841e-06
-8.98979e-06
-8.94234e-06
-8.89643e-06
-8.85232e-06
-8.81004e-06
-8.76933e-06
-8.72947e-06
-8.68905e-06
-8.64751e-06
-8.60214e-06
-8.55859e-06
-8.20572e-06
-9.79771e-06
-9.77619e-06
-9.75081e-06
-9.7237e-06
-9.6944e-06
-9.66249e-06
-9.62784e-06
-9.59045e-06
-9.55036e-06
-9.50765e-06
-9.46248e-06
-9.41505e-06
-9.36564e-06
-9.31459e-06
-9.26231e-06
-9.20924e-06
-9.15587e-06
-9.10268e-06
-9.05017e-06
-8.99878e-06
-8.94887e-06
-8.90066e-06
-8.85413e-06
-8.80895e-06
-8.76428e-06
-8.71859e-06
-8.67022e-06
-8.6145e-06
-8.5324e-06
-8.18191e-06
-9.91598e-06
-9.89281e-06
-9.86548e-06
-9.8363e-06
-9.80479e-06
-9.77048e-06
-9.73327e-06
-9.69314e-06
-9.65016e-06
-9.60442e-06
-9.55607e-06
-9.50535e-06
-9.45254e-06
-9.398e-06
-9.34214e-06
-9.28541e-06
-9.2283e-06
-9.17132e-06
-9.11494e-06
-9.0596e-06
-9.00563e-06
-8.9532e-06
-8.90225e-06
-8.85242e-06
-8.80284e-06
-8.75213e-06
-8.69722e-06
-8.63211e-06
-8.50738e-06
-8.26765e-06
-1.00396e-05
-1.00146e-05
-9.98513e-06
-9.95374e-06
-9.91988e-06
-9.88308e-06
-9.84321e-06
-9.80029e-06
-9.75437e-06
-9.70557e-06
-9.65405e-06
-9.60005e-06
-9.54387e-06
-9.48586e-06
-9.42645e-06
-9.3661e-06
-9.3053e-06
-9.24454e-06
-9.18429e-06
-9.12494e-06
-9.0668e-06
-9.00998e-06
-8.9544e-06
-8.8997e-06
-8.84519e-06
-8.79009e-06
-8.73157e-06
-8.6706e-06
-8.571e-06
-8.81411e-06
-1.01688e-05
-1.01418e-05
-1.01101e-05
-1.00763e-05
-1.004e-05
-1.00005e-05
-9.95793e-06
-9.91213e-06
-9.86323e-06
-9.81134e-06
-9.75664e-06
-9.69936e-06
-9.63981e-06
-9.57836e-06
-9.51544e-06
-9.4515e-06
-9.38702e-06
-9.32247e-06
-9.25829e-06
-9.19484e-06
-9.13236e-06
-9.0709e-06
-9.01031e-06
-8.9502e-06
-8.88996e-06
-8.82919e-06
-8.76527e-06
-8.70421e-06
-8.61802e-06
-8.91876e-06
-1.03039e-05
-1.02747e-05
-1.02405e-05
-1.02041e-05
-1.01652e-05
-1.0123e-05
-1.00776e-05
-1.00288e-05
-9.9769e-06
-9.92188e-06
-9.86397e-06
-9.8034e-06
-9.7405e-06
-9.67563e-06
-9.60921e-06
-9.54168e-06
-9.47351e-06
-9.40513e-06
-9.33694e-06
-9.26923e-06
-9.20216e-06
-9.13571e-06
-9.06962e-06
-9.0034e-06
-8.93635e-06
-8.86812e-06
-8.79596e-06
-8.72663e-06
-8.6261e-06
-8.86488e-06
-1.0445e-05
-1.04134e-05
-1.03764e-05
-1.03374e-05
-1.02957e-05
-1.02507e-05
-1.02023e-05
-1.01505e-05
-1.00955e-05
-1.00373e-05
-9.97613e-06
-9.91227e-06
-9.84601e-06
-9.77772e-06
-9.70779e-06
-9.63666e-06
-9.56475e-06
-9.49246e-06
-9.42011e-06
-9.34792e-06
-9.27596e-06
-9.20409e-06
-9.1319e-06
-9.05876e-06
-8.98385e-06
-8.90647e-06
-8.82359e-06
-8.74108e-06
-8.62092e-06
-8.80382e-06
-1.05921e-05
-1.05579e-05
-1.0518e-05
-1.04761e-05
-1.04315e-05
-1.03835e-05
-1.0332e-05
-1.02772e-05
-1.0219e-05
-1.01575e-05
-1.00931e-05
-1.0026e-05
-9.95633e-06
-9.8846e-06
-9.81115e-06
-9.73637e-06
-9.66064e-06
-9.5843e-06
-9.5076e-06
-9.43066e-06
-9.35343e-06
-9.27562e-06
-9.19665e-06
-9.11578e-06
-9.03188e-06
-8.94395e-06
-8.84856e-06
-8.7503e-06
-8.61091e-06
-8.74385e-06
-1.0745e-05
-1.0708e-05
-1.06651e-05
-1.06202e-05
-1.05725e-05
-1.05214e-05
-1.04668e-05
-1.04087e-05
-1.03473e-05
-1.02826e-05
-1.02149e-05
-1.01444e-05
-1.00714e-05
-9.99619e-06
-9.91916e-06
-9.84065e-06
-9.76099e-06
-9.68042e-06
-9.59912e-06
-9.51708e-06
-9.43411e-06
-9.34977e-06
-9.26334e-06
-9.17383e-06
-9.07987e-06
-8.98009e-06
-8.87096e-06
-8.75573e-06
-8.59774e-06
-8.68322e-06
-1.09036e-05
-1.08637e-05
-1.08175e-05
-1.07694e-05
-1.07185e-05
-1.06643e-05
-1.06064e-05
-1.05451e-05
-1.04804e-05
-1.04124e-05
-1.03414e-05
-1.02675e-05
-1.0191e-05
-1.01123e-05
-1.00316e-05
-9.94927e-06
-9.86551e-06
-9.78049e-06
-9.69427e-06
-9.60673e-06
-9.5175e-06
-9.42597e-06
-9.33132e-06
-9.23224e-06
-9.12716e-06
-9.01456e-06
-8.89059e-06
-8.75782e-06
-8.58194e-06
-8.62234e-06
-1.10676e-05
-1.10246e-05
-1.0975e-05
-1.09235e-05
-1.08694e-05
-1.08118e-05
-1.07507e-05
-1.06861e-05
-1.0618e-05
-1.05467e-05
-1.04723e-05
-1.0395e-05
-1.03151e-05
-1.02327e-05
-1.01483e-05
-1.00619e-05
-9.97385e-06
-9.88409e-06
-9.79259e-06
-9.69906e-06
-9.60297e-06
-9.50362e-06
-9.39989e-06
-9.29034e-06
-9.17321e-06
-9.04682e-06
-8.9073e-06
-8.7567e-06
-8.56368e-06
-8.56179e-06
-1.12365e-05
-1.11903e-05
-1.11371e-05
-1.10822e-05
-1.10247e-05
-1.09638e-05
-1.08993e-05
-1.08313e-05
-1.07599e-05
-1.06852e-05
-1.06074e-05
-1.05266e-05
-1.04431e-05
-1.03571e-05
-1.02688e-05
-1.01782e-05
-1.00856e-05
-9.99073e-06
-9.8935e-06
-9.79344e-06
-9.68989e-06
-9.58193e-06
-9.46827e-06
-9.34733e-06
-9.21733e-06
-9.07631e-06
-8.92072e-06
-8.75222e-06
-8.54276e-06
-8.50145e-06
-1.14099e-05
-1.13603e-05
-1.13035e-05
-1.12451e-05
-1.11842e-05
-1.11198e-05
-1.10519e-05
-1.09805e-05
-1.09057e-05
-1.08276e-05
-1.07463e-05
-1.0662e-05
-1.05749e-05
-1.0485e-05
-1.03926e-05
-1.02977e-05
-1.02001e-05
-1.00998e-05
-9.99636e-06
-9.88918e-06
-9.77749e-06
-9.66011e-06
-9.53565e-06
-9.40249e-06
-9.2587e-06
-9.10242e-06
-8.93038e-06
-8.74403e-06
-8.51877e-06
-8.44077e-06
-1.15871e-05
-1.15341e-05
-1.14736e-05
-1.14116e-05
-1.13471e-05
-1.12793e-05
-1.1208e-05
-1.11332e-05
-1.10549e-05
-1.09734e-05
-1.08886e-05
-1.08007e-05
-1.07099e-05
-1.06161e-05
-1.05194e-05
-1.04197e-05
-1.03169e-05
-1.02107e-05
-1.01004e-05
-9.98554e-06
-9.86492e-06
-9.73732e-06
-9.60121e-06
-9.45497e-06
-9.29664e-06
-9.12453e-06
-8.93576e-06
-8.73169e-06
-8.49113e-06
-8.37901e-06
-1.17675e-05
-1.1711e-05
-1.16467e-05
-1.1581e-05
-1.15131e-05
-1.14418e-05
-1.1367e-05
-1.12888e-05
-1.12071e-05
-1.11221e-05
-1.10338e-05
-1.09423e-05
-1.08475e-05
-1.07496e-05
-1.06484e-05
-1.05437e-05
-1.04353e-05
-1.03226e-05
-1.0205e-05
-1.00816e-05
-9.95128e-06
-9.81259e-06
-9.66407e-06
-9.5039e-06
-9.33037e-06
-9.14197e-06
-8.93629e-06
-8.71469e-06
-8.45926e-06
-8.31523e-06
-1.19503e-05
-1.18902e-05
-1.18221e-05
-1.17528e-05
-1.16814e-05
-1.16066e-05
-1.15284e-05
-1.14467e-05
-1.13616e-05
-1.12731e-05
-1.11812e-05
-1.10859e-05
-1.09872e-05
-1.08849e-05
-1.07789e-05
-1.06689e-05
-1.05543e-05
-1.04347e-05
-1.03091e-05
-1.01765e-05
-1.00356e-05
-9.88507e-06
-9.72321e-06
-9.54842e-06
-9.35912e-06
-9.15409e-06
-8.93142e-06
-8.69259e-06
-8.42271e-06
-8.24863e-06
-1.21347e-05
-1.2071e-05
-1.1999e-05
-1.19261e-05
-1.18512e-05
-1.17731e-05
-1.16914e-05
-1.16063e-05
-1.15178e-05
-1.14258e-05
-1.13303e-05
-1.12311e-05
-1.11282e-05
-1.10214e-05
-1.09103e-05
-1.07944e-05
-1.06733e-05
-1.05461e-05
-1.04118e-05
-1.02692e-05
-1.0117e-05
-9.95372e-06
-9.77776e-06
-9.58767e-06
-9.38212e-06
-9.1602e-06
-8.92061e-06
-8.66496e-06
-8.3813e-06
-8.17939e-06
-1.23196e-05
-1.22524e-05
-1.21766e-05
-1.21001e-05
-1.20218e-05
-1.19402e-05
-1.18552e-05
-1.17668e-05
-1.16748e-05
-1.15793e-05
-1.14801e-05
-1.13769e-05
-1.12697e-05
-1.1158e-05
-1.10415e-05
-1.09194e-05
-1.07912e-05
-1.06557e-05
-1.0512e-05
-1.03586e-05
-1.01943e-05
-1.00175e-05
-9.82673e-06
-9.62077e-06
-9.39859e-06
-9.15967e-06
-8.90328e-06
-8.63131e-06
-8.3344e-06
-8.10745e-06
-1.25041e-05
-1.24334e-05
-1.23539e-05
-1.22739e-05
-1.21921e-05
-1.21073e-05
-1.2019e-05
-1.19272e-05
-1.18319e-05
-1.17328e-05
-1.16298e-05
-1.15226e-05
-1.14108e-05
-1.1294e-05
-1.11716e-05
-1.10429e-05
-1.09069e-05
-1.07626e-05
-1.06086e-05
-1.04437e-05
-1.02665e-05
-1.00754e-05
-9.86916e-06
-9.64685e-06
-9.40778e-06
-9.15182e-06
-8.87887e-06
-8.59108e-06
-8.28141e-06
-8.03181e-06
-1.2687e-05
-1.26129e-05
-1.25297e-05
-1.24463e-05
-1.23613e-05
-1.22732e-05
-1.21817e-05
-1.20867e-05
-1.1988e-05
-1.18853e-05
-1.17785e-05
-1.1667e-05
-1.15505e-05
-1.14282e-05
-1.12996e-05
-1.11637e-05
-1.10194e-05
-1.08654e-05
-1.07006e-05
-1.05234e-05
-1.03324e-05
-1.01263e-05
-9.90411e-06
-9.66508e-06
-9.40895e-06
-9.13606e-06
-8.84687e-06
-8.54383e-06
-8.22188e-06
-7.95189e-06
-1.28672e-05
-1.27897e-05
-1.2703e-05
-1.26163e-05
-1.25281e-05
-1.24369e-05
-1.23423e-05
-1.22441e-05
-1.2142e-05
-1.20358e-05
-1.1925e-05
-1.18092e-05
-1.16876e-05
-1.15596e-05
-1.14243e-05
-1.12806e-05
-1.11274e-05
-1.09632e-05
-1.07866e-05
-1.05963e-05
-1.03909e-05
-1.01693e-05
-9.93064e-06
-9.67463e-06
-9.4014e-06
-9.11178e-06
-8.80678e-06
-8.48913e-06
-8.15548e-06
-7.86734e-06
-1.30434e-05
-1.29627e-05
-1.28725e-05
-1.27827e-05
-1.26915e-05
-1.25973e-05
-1.24997e-05
-1.23984e-05
-1.2293e-05
-1.21832e-05
-1.20684e-05
-1.19479e-05
-1.18211e-05
-1.1687e-05
-1.15445e-05
-1.13925e-05
-1.12296e-05
-1.10544e-05
-1.08655e-05
-1.06614e-05
-1.04409e-05
-1.02032e-05
-9.94783e-06
-9.6747e-06
-9.38448e-06
-9.07845e-06
-8.75814e-06
-8.42653e-06
-8.08177e-06
-7.77741e-06
-1.32142e-05
-1.31304e-05
-1.3037e-05
-1.29441e-05
-1.28501e-05
-1.27531e-05
-1.26526e-05
-1.25483e-05
-1.24396e-05
-1.23262e-05
-1.22072e-05
-1.2082e-05
-1.19496e-05
-1.1809e-05
-1.16589e-05
-1.1498e-05
-1.13248e-05
-1.1138e-05
-1.09359e-05
-1.07174e-05
-1.04814e-05
-1.02272e-05
-9.9548e-06
-9.66455e-06
-9.35755e-06
-9.03554e-06
-8.70052e-06
-8.3557e-06
-8.00042e-06
-7.68147e-06
-1.33782e-05
-1.32915e-05
-1.31951e-05
-1.30994e-05
-1.30027e-05
-1.29031e-05
-1.27998e-05
-1.26925e-05
-1.25806e-05
-1.24635e-05
-1.23403e-05
-1.22101e-05
-1.20718e-05
-1.19243e-05
-1.1766e-05
-1.15957e-05
-1.14117e-05
-1.12125e-05
-1.09967e-05
-1.07632e-05
-1.05111e-05
-1.02402e-05
-9.95072e-06
-9.64348e-06
-9.32005e-06
-8.9826e-06
-8.63356e-06
-8.27637e-06
-7.91143e-06
-7.57985e-06
-1.35339e-05
-1.34445e-05
-1.33452e-05
-1.3247e-05
-1.31478e-05
-1.30457e-05
-1.29398e-05
-1.28297e-05
-1.27146e-05
-1.25937e-05
-1.24661e-05
-1.23308e-05
-1.21863e-05
-1.20314e-05
-1.18646e-05
-1.16842e-05
-1.14887e-05
-1.12766e-05
-1.10465e-05
-1.07976e-05
-1.05292e-05
-1.02413e-05
-9.93479e-06
-9.61082e-06
-9.27143e-06
-8.91921e-06
-8.55694e-06
-8.18832e-06
-7.81468e-06
-7.47177e-06
-1.36798e-05
-1.35879e-05
-1.3486e-05
-1.33854e-05
-1.3284e-05
-1.31796e-05
-1.30713e-05
-1.29584e-05
-1.28401e-05
-1.27155e-05
-1.25834e-05
-1.24426e-05
-1.22916e-05
-1.2129e-05
-1.1953e-05
-1.17621e-05
-1.15546e-05
-1.1329e-05
-1.10842e-05
-1.08194e-05
-1.05344e-05
-1.02297e-05
-9.90626e-06
-9.56596e-06
-9.2112e-06
-8.84495e-06
-8.47035e-06
-8.09143e-06
-7.70972e-06
-7.35446e-06
-1.38142e-05
-1.37201e-05
-1.3616e-05
-1.35132e-05
-1.34098e-05
-1.33033e-05
-1.31927e-05
-1.30771e-05
-1.29557e-05
-1.28272e-05
-1.26905e-05
-1.25441e-05
-1.23863e-05
-1.22155e-05
-1.20299e-05
-1.18279e-05
-1.16079e-05
-1.13683e-05
-1.11084e-05
-1.08276e-05
-1.0526e-05
-1.02044e-05
-9.86445e-06
-9.50834e-06
-9.13891e-06
-8.75947e-06
-8.37355e-06
-7.98544e-06
-7.59525e-06
-7.22834e-06
-1.39356e-05
-1.38395e-05
-1.37334e-05
-1.36288e-05
-1.35236e-05
-1.34152e-05
-1.33024e-05
-1.31843e-05
-1.30598e-05
-1.29275e-05
-1.2786e-05
-1.26336e-05
-1.24687e-05
-1.22894e-05
-1.20938e-05
-1.18803e-05
-1.16472e-05
-1.13934e-05
-1.11181e-05
-1.0821e-05
-1.05029e-05
-1.01647e-05
-9.80871e-06
-9.43743e-06
-9.05413e-06
-8.66244e-06
-8.26631e-06
-7.86979e-06
-7.47054e-06
-7.09552e-06
-1.40423e-05
-1.39445e-05
-1.38366e-05
-1.37306e-05
-1.36239e-05
-1.35138e-05
-1.3399e-05
-1.32785e-05
-1.31508e-05
-1.30146e-05
-1.28682e-05
-1.27097e-05
-1.25373e-05
-1.23491e-05
-1.21431e-05
-1.19177e-05
-1.16713e-05
-1.14029e-05
-1.1112e-05
-1.07988e-05
-1.04643e-05
-1.011e-05
-9.73845e-06
-9.35276e-06
-8.95649e-06
-8.5536e-06
-8.14835e-06
-7.74339e-06
-7.33695e-06
-6.95555e-06
-1.41326e-05
-1.40334e-05
-1.39242e-05
-1.38169e-05
-1.37089e-05
-1.35974e-05
-1.34808e-05
-1.33579e-05
-1.32272e-05
-1.30871e-05
-1.29355e-05
-1.27707e-05
-1.25906e-05
-1.23932e-05
-1.21764e-05
-1.19387e-05
-1.16788e-05
-1.13956e-05
-1.10892e-05
-1.076e-05
-1.04094e-05
-1.00395e-05
-9.65315e-06
-9.25392e-06
-8.84567e-06
-8.43274e-06
-8.01924e-06
-7.60552e-06
-7.195e-06
-6.80768e-06
-1.42049e-05
-1.41046e-05
-1.39943e-05
-1.38861e-05
-1.37772e-05
-1.36645e-05
-1.35463e-05
-1.34211e-05
-1.32874e-05
-1.31432e-05
-1.29865e-05
-1.28151e-05
-1.2627e-05
-1.24201e-05
-1.21923e-05
-1.19422e-05
-1.16684e-05
-1.13705e-05
-1.10487e-05
-1.07037e-05
-1.03375e-05
-9.9526e-06
-9.55233e-06
-9.14052e-06
-8.72141e-06
-8.29956e-06
-7.8781e-06
-7.45697e-06
-7.04423e-06
-6.65143e-06
-1.42574e-05
-1.41564e-05
-1.40455e-05
-1.39366e-05
-1.3827e-05
-1.37133e-05
-1.35937e-05
-1.34664e-05
-1.33297e-05
-1.31814e-05
-1.30194e-05
-1.28414e-05
-1.26451e-05
-1.24284e-05
-1.21894e-05
-1.19266e-05
-1.16391e-05
-1.13265e-05
-1.09894e-05
-1.06292e-05
-1.0248e-05
-9.84888e-06
-9.43559e-06
-9.01227e-06
-8.58347e-06
-8.1537e-06
-7.7242e-06
-7.29856e-06
-6.88421e-06
-6.48639e-06
-1.42886e-05
-1.41872e-05
-1.4076e-05
-1.39669e-05
-1.38569e-05
-1.37424e-05
-1.36215e-05
-1.34922e-05
-1.33525e-05
-1.32001e-05
-1.30327e-05
-1.28479e-05
-1.26433e-05
-1.24167e-05
-1.21663e-05
-1.18909e-05
-1.15897e-05
-1.12626e-05
-1.09107e-05
-1.05357e-05
-1.01402e-05
-9.72785e-06
-9.30257e-06
-8.86889e-06
-8.43162e-06
-7.9945e-06
-7.55811e-06
-7.13003e-06
-6.71459e-06
-6.31237e-06
-7.75154e-06
-7.65336e-06
-7.53409e-06
-7.38328e-06
-7.20129e-06
-6.984e-06
-6.7277e-06
-6.43011e-06
-6.08983e-06
-5.70669e-06
-5.282e-06
-4.81884e-06
-4.32215e-06
-3.79881e-06
-3.25772e-06
-2.70867e-06
-2.16306e-06
-1.63272e-06
-1.12933e-06
-6.62955e-07
-2.42301e-07
1.25233e-07
4.35001e-07
6.84844e-07
8.75154e-07
1.00865e-06
1.09005e-06
1.12563e-06
1.12272e-06
1.08916e-06
1.03281e-06
9.61072e-07
8.80484e-07
7.96454e-07
7.13106e-07
6.33321e-07
5.5888e-07
4.90706e-07
4.29098e-07
3.73956e-07
3.24929e-07
2.81549e-07
2.43273e-07
2.09596e-07
1.79987e-07
1.54042e-07
1.31281e-07
1.11447e-07
9.40584e-08
7.90409e-08
6.58239e-08
5.45967e-08
4.4542e-08
3.62782e-08
2.84871e-08
2.25149e-08
1.61104e-08
1.2262e-08
5.64193e-09
6.31586e-09
-7.76417e-06
-7.66443e-06
-7.5458e-06
-7.39586e-06
-7.214e-06
-6.99699e-06
-6.74116e-06
-6.444e-06
-6.10408e-06
-5.72119e-06
-5.29665e-06
-4.83349e-06
-4.33669e-06
-3.81311e-06
-3.27161e-06
-2.72197e-06
-2.17573e-06
-1.64465e-06
-1.14045e-06
-6.73189e-07
-2.51623e-07
1.16832e-07
4.27525e-07
6.78279e-07
8.69465e-07
1.0038e-06
1.08597e-06
1.12227e-06
1.11999e-06
1.087e-06
1.03112e-06
9.59775e-07
8.79504e-07
7.95725e-07
7.12566e-07
6.32928e-07
5.58597e-07
4.90499e-07
4.2895e-07
3.73845e-07
3.24849e-07
2.81485e-07
2.43231e-07
2.09555e-07
1.79961e-07
1.54018e-07
1.3126e-07
1.11436e-07
9.40424e-08
7.90306e-08
6.58209e-08
5.45839e-08
4.45332e-08
3.62774e-08
2.84893e-08
2.2509e-08
1.61025e-08
1.22584e-08
5.64648e-09
6.31873e-09
-7.78905e-06
-7.68618e-06
-7.56885e-06
-7.42017e-06
-7.2391e-06
-7.02277e-06
-6.76779e-06
-6.47145e-06
-6.13223e-06
-5.74986e-06
-5.3256e-06
-4.86249e-06
-4.36547e-06
-3.8414e-06
-3.29911e-06
-2.74837e-06
-2.20088e-06
-1.66835e-06
-1.16254e-06
-6.93553e-07
-2.70188e-07
1.00097e-07
4.12624e-07
6.65182e-07
8.58112e-07
9.94101e-07
1.07783e-06
1.11555e-06
1.11455e-06
1.08266e-06
1.02774e-06
9.57185e-07
8.77549e-07
7.94268e-07
7.11494e-07
6.32145e-07
5.58027e-07
4.90086e-07
4.28649e-07
3.73625e-07
3.24686e-07
2.81363e-07
2.43138e-07
2.09484e-07
1.79904e-07
1.53973e-07
1.31224e-07
1.11406e-07
9.40185e-08
7.901e-08
6.58033e-08
5.45702e-08
4.45216e-08
3.62668e-08
2.84807e-08
2.25025e-08
1.6099e-08
1.22533e-08
5.64612e-09
6.31159e-09
-7.82526e-06
-7.71769e-06
-7.60243e-06
-7.45521e-06
-7.27569e-06
-7.06058e-06
-6.80686e-06
-6.51172e-06
-6.17354e-06
-5.79195e-06
-5.36816e-06
-4.90514e-06
-4.40784e-06
-3.88311e-06
-3.33962e-06
-2.7874e-06
-2.23807e-06
-1.70344e-06
-1.19528e-06
-7.2376e-07
-2.97755e-07
7.52239e-08
3.90457e-07
6.45682e-07
8.41194e-07
9.79642e-07
1.06567e-06
1.1055e-06
1.10641e-06
1.07619e-06
1.02269e-06
9.53306e-07
8.7462e-07
7.92086e-07
7.09887e-07
6.30971e-07
5.57173e-07
4.89467e-07
4.28198e-07
3.73296e-07
3.24442e-07
2.8118e-07
2.42998e-07
2.09377e-07
1.7982e-07
1.53906e-07
1.3117e-07
1.11361e-07
9.39823e-08
7.89792e-08
6.57772e-08
5.45491e-08
4.45039e-08
3.62511e-08
2.84682e-08
2.24925e-08
1.60933e-08
1.22457e-08
5.6458e-09
6.30129e-09
-7.87134e-06
-7.75763e-06
-7.6453e-06
-7.49983e-06
-7.32247e-06
-7.1092e-06
-6.85724e-06
-6.56374e-06
-6.22698e-06
-5.84649e-06
-5.42339e-06
-4.96058e-06
-4.46298e-06
-3.93746e-06
-3.39251e-06
-2.8384e-06
-2.28675e-06
-1.74942e-06
-1.23823e-06
-7.63445e-07
-3.34015e-07
4.24724e-08
3.6124e-07
6.19954e-07
8.18852e-07
9.6053e-07
1.04959e-06
1.09221e-06
1.09561e-06
1.0676e-06
1.01597e-06
9.48153e-07
8.70726e-07
7.89184e-07
7.07748e-07
6.29408e-07
5.56037e-07
4.88642e-07
4.27598e-07
3.72857e-07
3.24117e-07
2.80936e-07
2.42812e-07
2.09234e-07
1.79708e-07
1.53817e-07
1.31099e-07
1.11301e-07
9.39339e-08
7.89382e-08
6.57426e-08
5.45207e-08
4.44801e-08
3.62302e-08
2.84519e-08
2.2479e-08
1.60854e-08
1.22355e-08
5.6455e-09
6.28783e-09
-7.92565e-06
-7.80437e-06
-7.69597e-06
-7.55257e-06
-7.37793e-06
-7.1671e-06
-6.91749e-06
-6.62614e-06
-6.29125e-06
-5.91224e-06
-5.49012e-06
-5.0277e-06
-4.5299e-06
-4.00348e-06
-3.45694e-06
-2.90065e-06
-2.34627e-06
-1.80572e-06
-1.2909e-06
-8.12168e-07
-3.78594e-07
2.15791e-09
3.25233e-07
5.88213e-07
7.91258e-07
9.36899e-07
1.02968e-06
1.07573e-06
1.08223e-06
1.05693e-06
1.00763e-06
9.41739e-07
8.65877e-07
7.85568e-07
7.05082e-07
6.27459e-07
5.54619e-07
4.87613e-07
4.26849e-07
3.72308e-07
3.23711e-07
2.80632e-07
2.4258e-07
2.09055e-07
1.79567e-07
1.53705e-07
1.31009e-07
1.11227e-07
9.38732e-08
7.8887e-08
6.56994e-08
5.44849e-08
4.44504e-08
3.62043e-08
2.84317e-08
2.2462e-08
1.60754e-08
1.22228e-08
5.64523e-09
6.27121e-09
-7.98663e-06
-7.856e-06
-7.75267e-06
-7.61172e-06
-7.44035e-06
-7.23258e-06
-6.98592e-06
-6.69729e-06
-6.36479e-06
-5.98772e-06
-5.56695e-06
-5.10523e-06
-4.60738e-06
-4.08007e-06
-3.53192e-06
-2.97326e-06
-2.41582e-06
-1.87164e-06
-1.35268e-06
-8.6942e-07
-4.31061e-07
-4.53544e-08
2.82743e-07
5.5071e-07
7.58616e-07
9.08912e-07
1.00608e-06
1.05617e-06
1.06631e-06
1.04422e-06
9.97677e-07
9.34087e-07
8.60085e-07
7.81246e-07
7.01893e-07
6.25126e-07
5.52921e-07
4.8638e-07
4.25951e-07
3.71651e-07
3.23224e-07
2.80267e-07
2.42302e-07
2.0884e-07
1.79399e-07
1.53571e-07
1.30901e-07
1.11138e-07
9.38004e-08
7.88256e-08
6.56478e-08
5.44419e-08
4.44147e-08
3.61732e-08
2.84076e-08
2.24414e-08
1.60632e-08
1.22075e-08
5.64496e-09
6.25143e-09
-8.05298e-06
-7.9103e-06
-7.81356e-06
-7.67547e-06
-7.50789e-06
-7.30379e-06
-7.06069e-06
-6.7754e-06
-6.44588e-06
-6.07127e-06
-5.65235e-06
-5.19171e-06
-4.69401e-06
-4.16606e-06
-3.61632e-06
-3.05522e-06
-2.49454e-06
-1.94643e-06
-1.42291e-06
-9.34627e-07
-4.90932e-07
-9.9656e-08
2.3411e-07
5.07727e-07
7.21152e-07
8.76748e-07
9.78908e-07
1.03362e-06
1.04794e-06
1.02954e-06
9.86163e-07
9.25219e-07
8.53366e-07
7.76227e-07
6.98187e-07
6.22413e-07
5.50946e-07
4.84945e-07
4.24906e-07
3.70885e-07
3.22657e-07
2.79841e-07
2.41978e-07
2.0859e-07
1.79203e-07
1.53414e-07
1.30775e-07
1.11034e-07
9.37155e-08
7.8754e-08
6.55877e-08
5.43915e-08
4.4373e-08
3.61371e-08
2.83796e-08
2.24175e-08
1.60489e-08
1.21896e-08
5.64471e-09
6.22848e-09
-8.12455e-06
-7.96429e-06
-7.87693e-06
-7.74195e-06
-7.57864e-06
-7.37881e-06