/*--------------------------------*- C++ -*----------------------------------*\
| =========                 |                                                 |
| \\      /  F ield         | foam-extend: Open Source CFD                    |
|  \\    /   O peration     | Version:     4.0                                |
|   \\  /    A nd           | Web:         http://www.foam-extend.org         |
|    \\/     M anipulation  |                                                 |
\*---------------------------------------------------------------------------*/
FoamFile
{
    version     2.0;
    format      ascii;
    class       surfaceScalarField;
    location    "70";
    object      phi;
}
// * * * * * * * * * * * * * * * * * * * * * * * * * * * * * * * * * * * * * //

dimensions      [0 3 -1 0 0 0 0];

internalField   nonuniform List<scalar> 
71520
(
-1.81122e-10
1.80194e-10
9.28124e-13
-7.30491e-10
5.46475e-10
2.89202e-12
-1.67649e-09
9.40906e-10
5.09262e-12
-3.04799e-09
1.36395e-09
7.54753e-12
-4.8742e-09
1.81593e-09
1.02747e-11
-7.18451e-09
2.29702e-09
1.32921e-11
-1.00084e-08
2.80725e-09
1.66178e-11
-1.33752e-08
3.34656e-09
2.02695e-11
-1.73142e-08
3.91472e-09
2.42645e-11
-2.18542e-08
4.51136e-09
2.86191e-11
-2.70234e-08
5.13593e-09
3.3349e-11
-3.28496e-08
5.7877e-09
3.84682e-11
-3.93593e-08
6.46573e-09
4.39892e-11
-4.65781e-08
7.16881e-09
4.99233e-11
-5.45297e-08
7.8954e-09
5.62798e-11
-6.32364e-08
8.64354e-09
6.30656e-11
-7.27175e-08
9.41081e-09
7.02857e-11
-8.29895e-08
1.01941e-08
7.79431e-11
-9.40649e-08
1.09894e-08
8.60383e-11
-1.05951e-07
1.17914e-08
9.45676e-11
-1.18648e-07
1.25936e-08
1.03523e-10
-1.32148e-07
1.33869e-08
1.12889e-10
-1.4643e-07
1.41598e-08
1.22639e-10
-1.6146e-07
1.48971e-08
1.3273e-10
-1.77182e-07
1.55791e-08
1.43096e-10
-1.93517e-07
1.61808e-08
1.5364e-10
-2.10351e-07
1.66703e-08
1.64223e-10
-2.27532e-07
1.70061e-08
1.74651e-10
-2.44847e-07
1.71308e-08
1.84657e-10
1.69704e-08
-2.62012e-07
1.93883e-10
-1.78605e-10
3.58799e-10
-7.20452e-10
1.08832e-09
-1.65365e-09
1.8741e-09
-3.00676e-09
2.71707e-09
-4.80869e-09
3.61786e-09
-7.08848e-09
4.57681e-09
-9.87522e-09
5.59399e-09
-1.31979e-08
6.66923e-09
-1.70852e-08
7.80203e-09
-2.15655e-08
8.99161e-09
-2.66663e-08
1.02368e-08
-3.24147e-08
1.15361e-08
-3.88364e-08
1.28874e-08
-4.59558e-08
1.42882e-08
-5.37957e-08
1.57354e-08
-6.23769e-08
1.72247e-08
-7.17172e-08
1.87511e-08
-8.18313e-08
2.03082e-08
-9.27294e-08
2.18875e-08
-1.04416e-07
2.34784e-08
-1.1689e-07
2.50669e-08
-1.30138e-07
2.66349e-08
-1.44136e-07
2.81585e-08
-1.58846e-07
2.96068e-08
-1.74207e-07
3.09401e-08
-1.90133e-07
3.21073e-08
-2.06507e-07
3.30438e-08
-2.23167e-07
3.36664e-08
-2.39896e-07
3.38598e-08
3.34746e-08
-2.564e-07
-1.73635e-10
5.32434e-10
-7.00622e-10
1.61531e-09
-1.6085e-09
2.78198e-09
-2.92527e-09
4.03384e-09
-4.67916e-09
5.37176e-09
-6.89856e-09
6.7962e-09
-9.61179e-09
8.30722e-09
-1.2847e-08
9.90443e-09
-1.6632e-08
1.1587e-08
-2.09939e-08
1.33535e-08
-2.59592e-08
1.52021e-08
-3.15533e-08
1.71302e-08
-3.78004e-08
1.91345e-08
-4.47229e-08
2.12107e-08
-5.23412e-08
2.33538e-08
-6.06735e-08
2.5557e-08
-6.97345e-08
2.78121e-08
-7.95353e-08
3.01089e-08
-9.00818e-08
3.2434e-08
-1.01374e-07
3.47705e-08
-1.13403e-07
3.70964e-08
-1.26152e-07
3.93835e-08
-1.39588e-07
4.15948e-08
-1.53664e-07
4.36825e-08
-1.6831e-07
4.55856e-08
-1.83428e-07
4.72261e-08
-1.9889e-07
4.85054e-08
-2.14521e-07
4.92971e-08
-2.3009e-07
4.94292e-08
4.8673e-08
-2.45289e-07
-1.66348e-10
6.98783e-10
-6.71534e-10
2.12049e-09
-1.54225e-09
3.6527e-09
-2.8056e-09
5.29718e-09
-4.48889e-09
7.05504e-09
-6.61945e-09
8.92676e-09
-9.2245e-09
1.09123e-08
-1.23309e-08
1.30109e-08
-1.59651e-08
1.52212e-08
-2.01526e-08
1.7541e-08
-2.4918e-08
1.99675e-08
-3.02846e-08
2.24968e-08
-3.6274e-08
2.51238e-08
-4.29057e-08
2.78425e-08
-5.01969e-08
3.0645e-08
-5.81616e-08
3.35217e-08
-6.68102e-08
3.64606e-08
-7.61481e-08
3.94468e-08
-8.61753e-08
4.24612e-08
-9.68844e-08
4.54796e-08
-1.08259e-07
4.84709e-08
-1.20271e-07
5.13953e-08
-1.32877e-07
5.42014e-08
-1.46018e-07
5.68233e-08
-1.59609e-07
5.91767e-08
-1.73538e-07
6.11553e-08
-1.87658e-07
6.26249e-08
-2.01775e-07
6.34145e-08
-2.15642e-07
6.32962e-08
6.19515e-08
-2.28921e-07
-1.5694e-10
8.55724e-10
-6.33953e-10
2.59751e-09
-1.45661e-09
4.47536e-09
-2.65082e-09
6.4914e-09
-4.24263e-09
8.64685e-09
-6.25802e-09
1.09421e-08
-8.72271e-09
1.3377e-08
-1.16619e-08
1.59501e-08
-1.51001e-08
1.86594e-08
-1.90608e-08
2.15017e-08
-2.35661e-08
2.44728e-08
-2.86364e-08
2.75671e-08
-3.429e-08
3.07775e-08
-4.05429e-08
3.40953e-08
-4.74075e-08
3.75096e-08
-5.4893e-08
4.10071e-08
-6.30035e-08
4.45712e-08
-7.17379e-08
4.81812e-08
-8.10878e-08
5.18112e-08
-9.10366e-08
5.54284e-08
-1.01557e-07
5.89913e-08
-1.12609e-07
6.24469e-08
-1.24135e-07
6.57276e-08
-1.36059e-07
6.87471e-08
-1.48278e-07
7.13965e-08
-1.60662e-07
7.35386e-08
-1.73039e-07
7.5002e-08
-1.85194e-07
7.55699e-08
-1.96859e-07
7.49607e-08
7.27442e-08
-2.07651e-07
-1.45662e-10
1.00139e-09
-5.88855e-10
3.0407e-09
-1.35376e-09
5.24027e-09
-2.46481e-09
7.60245e-09
-3.94647e-09
1.01285e-08
-5.82303e-09
1.28187e-08
-8.11834e-09
1.56723e-08
-1.08556e-08
1.86873e-08
-1.40568e-08
2.18606e-08
-1.7743e-08
2.51879e-08
-2.19332e-08
2.8663e-08
-2.66444e-08
3.22782e-08
-3.18909e-08
3.6024e-08
-3.76839e-08
3.98883e-08
-4.40307e-08
4.38564e-08
-5.0934e-08
4.79105e-08
-5.8391e-08
5.20282e-08
-6.63919e-08
5.61821e-08
-7.49191e-08
6.03383e-08
-8.39445e-08
6.44538e-08
-9.3428e-08
6.84748e-08
-1.03314e-07
7.23334e-08
-1.1353e-07
7.59434e-08
-1.2398e-07
7.91965e-08
-1.3454e-07
8.19563e-08
-1.45053e-07
8.40523e-08
-1.55325e-07
8.52736e-08
-1.6511e-07
8.53552e-08
-1.74126e-07
8.39767e-08
8.05488e-08
-1.81931e-07
-1.32803e-10
1.13419e-09
-5.3738e-10
3.44528e-09
-1.23626e-09
5.93914e-09
-2.25211e-09
8.61829e-09
-3.60752e-09
1.14839e-08
-5.32476e-09
1.45359e-08
-7.42544e-09
1.77729e-08
-9.93028e-09
2.11921e-08
-1.28587e-08
2.4789e-08
-1.62283e-08
2.85575e-08
-2.00548e-08
3.24894e-08
-2.4351e-08
3.65744e-08
-2.91266e-08
4.07996e-08
-3.43874e-08
4.51491e-08
-4.01345e-08
4.96036e-08
-4.63635e-08
5.41394e-08
-5.30631e-08
5.87278e-08
-6.02142e-08
6.33332e-08
-6.77878e-08
6.79119e-08
-7.57434e-08
7.24093e-08
-8.40261e-08
7.67575e-08
-9.2564e-08
8.08713e-08
-1.01265e-07
8.46441e-08
-1.10011e-07
8.79427e-08
-1.18655e-07
9.06005e-08
-1.27014e-07
9.24112e-08
-1.34863e-07
9.31221e-08
-1.41924e-07
9.24168e-08
-1.47899e-07
8.99513e-08
8.49273e-08
-1.52277e-07
-1.18688e-10
1.25288e-09
-4.80799e-10
3.80739e-09
-1.10695e-09
6.56529e-09
-2.01778e-09
9.52913e-09
-3.23372e-09
1.26999e-08
-4.77467e-09
1.60769e-08
-6.65969e-09
1.9658e-08
-8.90664e-09
2.34391e-08
-1.15317e-08
2.74141e-08
-1.45491e-08
3.15749e-08
-1.79704e-08
3.59107e-08
-2.18037e-08
4.04078e-08
-2.60535e-08
4.50494e-08
-3.07196e-08
4.98152e-08
-3.5796e-08
5.468e-08
-4.12704e-08
5.96138e-08
-4.71223e-08
6.45797e-08
-5.33218e-08
6.95327e-08
-5.98278e-08
7.44179e-08
-6.65858e-08
7.91673e-08
-7.35248e-08
8.36966e-08
-8.0555e-08
8.79015e-08
-8.75633e-08
9.16524e-08
-9.44091e-08
9.47885e-08
-1.00919e-07
9.71106e-08
-1.06881e-07
9.83735e-08
-1.12039e-07
9.82801e-08
-1.16085e-07
9.64623e-08
-1.18688e-07
9.2554e-08
8.55018e-08
-1.19262e-07
-1.0366e-10
1.35654e-09
-4.2046e-10
4.12419e-09
-9.68867e-10
7.1137e-09
-1.76724e-09
1.03275e-08
-2.83355e-09
1.37662e-08
-4.18503e-09
1.74284e-08
-5.83786e-09
2.13108e-08
-7.80668e-09
2.54079e-08
-1.01042e-08
2.97116e-08
-1.27404e-08
3.42112e-08
-1.57225e-08
3.88928e-08
-1.90536e-08
4.37388e-08
-2.27322e-08
4.87281e-08
-2.67515e-08
5.38345e-08
-3.1098e-08
5.90265e-08
-3.57505e-08
6.42663e-08
-4.06786e-08
6.95077e-08
-4.58409e-08
7.46951e-08
-5.11833e-08
7.97603e-08
-5.6636e-08
8.46201e-08
-6.21116e-08
8.91721e-08
-6.75007e-08
9.32906e-08
-7.26687e-08
9.68205e-08
-7.74513e-08
9.95711e-08
-8.16482e-08
1.01308e-07
-8.50178e-08
1.01743e-07
-8.72703e-08
1.00533e-07
-8.80631e-08
9.7255e-08
-8.70431e-08
9.1534e-08
8.19589e-08
-8.35002e-08
-8.80714e-11
1.44461e-09
-3.57744e-10
4.39386e-09
-8.25118e-10
7.58107e-09
-1.50602e-09
1.10084e-08
-2.4157e-09
1.46758e-08
-3.56844e-09
1.85811e-08
-4.97721e-09
2.27196e-08
-6.65311e-09
2.70838e-08
-8.60487e-09
3.16634e-08
-1.08383e-08
3.64446e-08
-1.33553e-08
4.14098e-08
-1.61537e-08
4.65372e-08
-1.92257e-08
5.18e-08
-2.25572e-08
5.7166e-08
-2.61266e-08
6.2596e-08
-2.99035e-08
6.80432e-08
-3.38468e-08
7.3451e-08
-3.79031e-08
7.87513e-08
-4.20042e-08
8.38614e-08
-4.60651e-08
8.8681e-08
-4.99805e-08
9.30876e-08
-5.36219e-08
9.69319e-08
-5.68327e-08
1.00031e-07
-5.94241e-08
1.02163e-07
-6.11697e-08
1.03053e-07
-6.17971e-08
1.02371e-07
-6.09793e-08
9.97149e-08
-5.83288e-08
9.46045e-08
-5.35116e-08
8.67167e-08
7.41238e-08
-4.56764e-08
-7.22664e-11
1.51688e-09
-2.94011e-10
4.6156e-09
-6.78764e-10
7.96583e-09
-1.2396e-09
1.15692e-08
-1.98878e-09
1.5425e-08
-2.9374e-09
1.95297e-08
-4.09489e-09
2.3877e-08
-5.4685e-09
2.84574e-08
-7.06273e-09
3.32576e-08
-8.87855e-09
3.82604e-08
-1.09127e-08
4.3444e-08
-1.3157e-08
4.87814e-08
-1.55968e-08
5.42399e-08
-1.82107e-08
5.97798e-08
-2.09684e-08
6.53537e-08
-2.38297e-08
7.09045e-08
-2.67423e-08
7.63637e-08
-2.96402e-08
8.16492e-08
-3.24413e-08
8.66624e-08
-3.50445e-08
9.12842e-08
-3.73271e-08
9.53701e-08
-3.91407e-08
9.87455e-08
-4.03074e-08
1.01198e-07
-4.06139e-08
1.02469e-07
-3.98063e-08
1.02245e-07
-3.75844e-08
1.00149e-07
-3.35924e-08
9.57229e-08
-2.73719e-08
8.8384e-08
-1.84603e-08
7.78051e-08
6.25413e-08
-6.87781e-09
-5.65709e-11
1.57345e-09
-2.30546e-10
4.78958e-09
-5.32708e-10
8.26799e-09
-9.73169e-10
1.20097e-08
-1.56101e-09
1.60129e-08
-2.30384e-09
2.02726e-08
-3.20732e-09
2.47805e-08
-4.27456e-09
2.95246e-08
-5.50548e-09
3.44885e-08
-6.89602e-09
3.9651e-08
-8.43727e-09
4.49853e-08
-1.01147e-08
5.04588e-08
-1.19068e-08
5.6032e-08
-1.37841e-08
6.16571e-08
-1.57074e-08
6.7277e-08
-1.76262e-08
7.28233e-08
-1.9477e-08
7.82144e-08
-2.11806e-08
8.33529e-08
-2.2641e-08
8.81228e-08
-2.37411e-08
9.23844e-08
-2.43409e-08
9.597e-08
-2.42725e-08
9.8677e-08
-2.33355e-08
1.00261e-07
-2.12929e-08
1.00426e-07
-1.78644e-08
9.88169e-08
-1.27207e-08
9.5005e-08
-5.4848e-09
8.8487e-08
4.21654e-09
7.86826e-08
1.73546e-08
6.4667e-08
4.62026e-08
3.36933e-08
-4.12763e-11
1.61472e-09
-1.68509e-10
4.91681e-09
-3.89581e-10
8.48906e-09
-7.11479e-10
1.23316e-08
-1.13989e-09
1.64413e-08
-1.67874e-09
2.08114e-08
-2.32965e-09
2.54314e-08
-3.09133e-09
3.02863e-08
-3.95887e-09
3.53561e-08
-4.92287e-09
4.0615e-08
-5.96852e-09
4.60309e-08
-7.07473e-09
5.1565e-08
-8.21278e-09
5.71701e-08
-9.34479e-09
6.27891e-08
-1.04222e-08
6.83544e-08
-1.13841e-08
7.37852e-08
-1.21553e-08
7.89856e-08
-1.26442e-08
8.38418e-08
-1.27404e-08
8.8219e-08
-1.23114e-08
9.19553e-08
-1.1199e-08
9.48576e-08
-9.21587e-09
9.66939e-08
-6.1405e-09
9.71857e-08
-1.71239e-09
9.59984e-08
4.37388e-09
9.27306e-08
1.24744e-08
8.69045e-08
2.30064e-08
7.7955e-08
3.64835e-08
6.52055e-08
5.33613e-08
4.77892e-08
2.51195e-08
7.44444e-08
-2.66275e-11
1.64135e-09
-1.08883e-10
4.99906e-09
-2.51635e-10
8.63181e-09
-4.58605e-10
1.25386e-08
-7.31932e-10
1.67146e-08
-1.07167e-09
2.11512e-08
-1.4752e-09
2.5835e-08
-1.93655e-09
3.07477e-08
-2.44574e-09
3.58653e-08
-2.98781e-09
4.1157e-08
-3.5419e-09
4.6585e-08
-4.0802e-09
5.21033e-08
-4.56612e-09
5.7656e-08
-4.95305e-09
6.31761e-08
-5.18297e-09
6.85843e-08
-5.18458e-09
7.37868e-08
-4.8713e-09
7.86723e-08
-4.13903e-09
8.31095e-08
-2.86287e-09
8.69429e-08
-8.94637e-10
8.99871e-08
1.94122e-09
9.20217e-08
5.85118e-09
9.27839e-08
1.10773e-08
9.19596e-08
1.79023e-08
8.91733e-08
2.66557e-08
8.39773e-08
3.77204e-08
7.58397e-08
5.15432e-08
6.41322e-08
6.864e-08
4.81087e-08
8.95476e-08
2.68815e-08
-4.19643e-10
1.15087e-07
-1.28181e-11
1.65417e-09
-5.24614e-11
5.03871e-09
-1.20703e-10
8.70006e-09
-2.17865e-10
1.26357e-08
-3.42415e-10
1.68392e-08
-4.90412e-10
2.12992e-08
-6.54863e-10
2.59994e-08
-8.24965e-10
3.09178e-08
-9.85269e-10
3.60256e-08
-1.11526e-09
4.1287e-08
-1.18786e-09
4.66576e-08
-1.16749e-09
5.2083e-08
-1.00954e-09
5.7498e-08
-6.5898e-10
6.28255e-08
-4.85354e-11
6.79739e-08
9.03314e-10
7.28349e-08
2.29459e-09
7.72811e-08
4.24241e-09
8.11617e-08
6.88592e-09
8.42994e-08
1.0389e-08
8.6484e-08
1.49441e-08
8.74666e-08
2.07762e-08
8.69519e-08
2.8147e-08
8.45888e-08
3.73606e-08
7.99597e-08
4.87691e-08
7.25689e-08
6.27795e-08
6.18292e-08
7.98621e-08
4.70496e-08
1.00556e-07
2.74147e-08
1.25452e-07
1.98593e-09
-3.03328e-08
1.55365e-07
-5.99389e-14
1.65423e-09
-3.07855e-14
5.03868e-09
1.55406e-12
8.69847e-09
7.82897e-12
1.26295e-08
2.415e-11
1.68228e-08
5.86246e-11
2.12647e-08
1.22763e-10
2.59353e-08
2.32233e-10
3.08083e-08
4.07766e-10
3.58501e-08
6.76317e-10
4.10185e-08
1.07205e-09
4.62619e-08
1.6374e-09
5.15176e-08
2.42456e-09
5.67109e-08
3.49717e-09
6.17529e-08
4.93217e-09
6.65389e-08
6.82179e-09
7.09453e-08
9.27587e-09
7.4827e-08
1.24244e-08
7.80132e-08
1.64204e-08
8.03033e-08
2.14431e-08
8.14612e-08
2.77015e-08
8.12082e-08
3.54383e-08
7.92151e-08
4.49344e-08
7.50926e-08
5.65141e-08
6.838e-08
7.05505e-08
5.85324e-08
8.74729e-08
4.49068e-08
1.07774e-07
2.67488e-08
1.32018e-07
3.17077e-09
1.60828e-07
-2.68247e-08
-6.45317e-08
1.95027e-07
1.15426e-11
1.64269e-09
4.79507e-11
5.00227e-09
1.13926e-10
8.6325e-09
2.16231e-10
1.25271e-08
3.64144e-10
1.66749e-08
5.70066e-10
2.10588e-08
8.50211e-10
2.56551e-08
1.22541e-09
3.04331e-08
1.72205e-09
3.53534e-08
2.37317e-09
4.03673e-08
3.21961e-09
4.54154e-08
4.31113e-09
5.04261e-08
5.70801e-09
5.5314e-08
7.48279e-09
5.99781e-08
9.7221e-09
6.42996e-08
1.25289e-08
6.81385e-08
1.60248e-08
7.13311e-08
2.03525e-08
7.36855e-08
2.56789e-08
7.49769e-08
3.21983e-08
7.49418e-08
4.0136e-08
7.32706e-08
4.97518e-08
6.95993e-08
6.13453e-08
6.34992e-08
7.52598e-08
5.44655e-08
9.18885e-08
4.19038e-08
1.11681e-07
2.51147e-08
1.35149e-07
3.2801e-09
1.62879e-07
-2.45594e-08
1.95524e-07
-5.94691e-08
-1.02924e-07
2.33916e-07
2.19365e-11
1.62075e-09
9.12856e-11
4.93292e-09
2.1608e-10
8.5077e-09
4.06713e-10
1.23365e-08
6.7647e-10
1.64052e-08
1.04214e-09
2.06931e-08
1.52477e-09
2.51725e-08
2.15045e-09
2.98074e-08
2.95134e-09
3.45525e-08
3.96672e-09
3.9352e-08
5.2442e-09
4.4138e-08
6.84108e-09
4.88292e-08
8.82586e-09
5.33292e-08
1.12801e-08
5.75239e-08
1.43002e-08
6.12794e-08
1.80001e-08
6.44386e-08
2.2513e-08
6.68182e-08
2.79944e-08
6.82041e-08
3.46249e-08
6.83463e-08
4.2614e-08
6.69528e-08
5.22026e-08
6.3682e-08
6.3668e-08
5.81339e-08
7.73272e-08
4.984e-08
9.3542e-08
3.82507e-08
1.12724e-07
2.27217e-08
1.35341e-07
2.49743e-09
1.61923e-07
-2.33019e-08
1.93072e-07
-5.57081e-08
2.29466e-07
-9.58627e-08
-1.45412e-07
2.71953e-07
3.11566e-11
1.58959e-09
1.30065e-10
4.834e-09
3.08099e-10
8.32967e-09
5.7934e-10
1.20653e-08
9.61133e-10
1.60234e-08
1.47474e-09
2.01795e-08
2.14608e-09
2.45012e-08
3.00664e-09
2.89469e-08
4.09443e-09
3.34647e-08
5.45513e-09
3.79913e-08
7.14332e-09
4.24498e-08
9.22391e-09
4.67486e-08
1.17738e-08
5.07793e-08
1.48836e-08
5.44141e-08
1.86601e-08
5.7503e-08
2.32276e-08
5.98711e-08
2.87314e-08
6.13145e-08
3.53397e-08
6.15958e-08
4.32472e-08
6.04388e-08
5.2678e-08
5.7522e-08
6.38891e-08
5.24708e-08
7.71745e-08
4.48486e-08
9.28683e-08
3.41461e-08
1.1135e-07
1.97689e-08
1.33049e-07
1.02293e-09
1.58447e-07
-2.29012e-08
1.8809e-07
-5.2944e-08
2.22592e-07
-9.02109e-08
2.62651e-07
-1.35921e-07
-1.91892e-07
3.09131e-07
3.92629e-11
1.55033e-09
1.64517e-10
4.70875e-09
3.90485e-10
8.1037e-09
7.34964e-10
1.17208e-08
1.2194e-09
1.55389e-08
1.86958e-09
1.95293e-08
2.7164e-09
2.36543e-08
3.79679e-09
2.78665e-08
5.15473e-09
3.21068e-08
6.84242e-09
3.63036e-08
8.92155e-09
4.03706e-08
1.14648e-08
4.42053e-08
1.45577e-08
4.76865e-08
1.83002e-08
5.06716e-08
2.2809e-08
5.29941e-08
2.82198e-08
5.44603e-08
3.46895e-08
5.48447e-08
4.23996e-08
5.38857e-08
5.15587e-08
5.12798e-08
6.24058e-08
4.66749e-08
7.52139e-08
3.96627e-08
9.02933e-08
2.97692e-08
1.07995e-07
1.64442e-08
1.28716e-07
-9.51526e-10
1.52898e-07
-2.31596e-08
1.81039e-07
-5.10417e-08
2.13694e-07
-8.55989e-08
2.51489e-07
-1.28006e-07
2.95128e-07
-1.79561e-07
-2.42253e-07
3.45489e-07
4.63662e-11
1.50396e-09
1.95064e-10
4.56005e-09
4.6417e-10
7.83459e-09
8.75212e-10
1.13098e-08
1.45377e-09
1.49604e-08
2.2302e-09
1.87529e-08
3.24045e-09
2.26441e-08
4.52697e-09
2.65799e-08
6.13982e-09
3.04939e-08
8.13784e-09
3.43056e-08
1.059e-08
3.79185e-08
1.35769e-08
4.12184e-08
1.71929e-08
4.40705e-08
2.15474e-08
4.6317e-08
2.67675e-08
4.77741e-08
3.3e-08
4.82278e-08
4.04142e-08
4.74305e-08
4.92048e-08
4.50951e-08
5.95945e-08
4.08901e-08
7.18375e-08
3.44319e-08
8.62227e-08
2.52776e-08
1.03077e-07
1.29153e-08
1.22767e-07
-3.24582e-09
1.45703e-07
-2.3888e-08
1.72343e-07
-4.97992e-08
2.03193e-07
-8.18923e-08
2.38818e-07
-1.21224e-07
2.79845e-07
-1.69033e-07
3.26977e-07
-2.26693e-07
-2.96363e-07
3.81087e-07
5.26187e-11
1.45135e-09
2.22295e-10
4.39038e-09
5.30459e-10
7.52643e-09
1.00238e-09
1.08378e-08
1.6678e-09
1.42949e-08
2.5617e-09
1.7859e-08
3.72511e-09
2.14807e-08
5.20613e-09
2.50989e-08
7.06097e-09
2.86391e-08
9.35524e-09
3.20113e-08
1.21654e-08
3.51084e-08
1.55802e-08
3.78035e-08
1.97028e-08
3.99478e-08
2.46526e-08
4.13673e-08
3.0567e-08
4.18597e-08
3.76045e-08
4.11903e-08
4.5947e-08
3.9088e-08
5.58025e-08
3.52397e-08
6.74082e-08
2.92843e-08
8.10337e-08
2.08064e-08
9.69835e-08
9.32775e-09
1.156e-07
-5.70108e-09
1.37265e-07
-2.49107e-08
1.62402e-07
-4.90252e-08
1.9148e-07
-7.88772e-08
2.25013e-07
-1.15426e-07
2.63566e-07
-1.59776e-07
3.07759e-07
-2.13226e-07
3.58285e-07
-2.77219e-07
-3.54067e-07
4.15989e-07
5.82059e-11
1.39314e-09
2.46931e-10
4.20165e-09
5.90956e-10
7.18241e-09
1.1193e-09
1.03095e-08
1.86591e-09
1.35483e-08
2.87042e-09
1.68545e-08
4.17902e-09
2.01721e-08
5.84551e-09
2.34324e-08
7.93241e-09
2.65522e-08
1.05122e-08
2.94315e-08
1.3669e-08
3.19516e-08
1.75e-08
3.39725e-08
2.21175e-08
3.53304e-08
2.76506e-08
3.58342e-08
3.42479e-08
3.52623e-08
4.20798e-08
3.33585e-08
5.13407e-08
2.98271e-08
6.22526e-08
2.43277e-08
7.50675e-08
1.64695e-08
9.007e-08
5.80392e-09
1.0758e-07
-8.18224e-09
1.27954e-07
-2.60754e-08
1.51589e-07
-4.85451e-08
1.78919e-07
-7.63557e-08
2.10422e-07
-1.1038e-07
2.46612e-07
-1.51616e-07
2.88046e-07
-2.0121e-07
3.35327e-07
-2.60507e-07
3.89125e-07
-3.31017e-07
-4.15164e-07
4.50222e-07
6.3337e-11
1.3298e-09
2.69787e-10
3.9952e-09
6.47483e-10
6.80471e-09
1.22922e-09
9.72775e-09
2.05315e-09
1.27244e-08
3.16362e-09
1.5744e-08
4.61207e-09
1.87236e-08
6.45808e-09
2.15864e-08
8.77056e-09
2.42397e-08
1.16291e-08
2.65729e-08
1.51257e-08
2.84551e-08
1.9366e-08
2.97322e-08
2.44716e-08
3.02247e-08
3.05822e-08
2.97237e-08
3.78573e-08
2.79872e-08
4.64794e-08
2.47364e-08
5.66563e-08
1.96501e-08
6.86238e-08
1.23602e-08
8.26487e-08
2.44462e-09
9.90304e-08
-1.05777e-08
1.18103e-07
-2.72551e-08
1.40238e-07
-4.82105e-08
1.65844e-07
-7.41509e-08
1.95365e-07
-1.05877e-07
2.2928e-07
-1.44294e-07
2.68096e-07
-1.90432e-07
3.12353e-07
-2.45467e-07
3.6262e-07
-3.10774e-07
4.19533e-07
-3.87931e-07
-4.79391e-07
4.8376e-07
6.82349e-11
1.26157e-09
2.91734e-10
3.77171e-09
7.0199e-10
6.39446e-09
1.33558e-09
9.09416e-09
2.23492e-09
1.18251e-08
3.44912e-09
1.45298e-08
5.03491e-09
1.71378e-08
7.05778e-09
1.95636e-08
9.59317e-09
2.17043e-08
1.2728e-08
2.34381e-08
1.6562e-08
2.4621e-08
2.12099e-08
2.50843e-08
2.68028e-08
2.46318e-08
3.34908e-08
2.30357e-08
4.14451e-08
2.00329e-08
5.08605e-08
1.53209e-08
6.19582e-08
8.55247e-09
7.49881e-08
-6.69693e-10
9.02309e-08
-1.27982e-08
1.08e-07
-2.83474e-08
1.28646e-07
-4.79004e-08
1.52551e-07
-7.21156e-08
1.80134e-07
-1.01734e-07
2.11844e-07
-1.37587e-07
2.48155e-07
-1.80605e-07
2.89557e-07
-2.31835e-07
3.36557e-07
-2.92467e-07
3.89674e-07
-3.6389e-07
4.49493e-07
-4.4775e-07
-5.46393e-07
5.16494e-07
7.31255e-11
1.18845e-09
3.13657e-10
3.53117e-09
7.5646e-10
5.95165e-09
1.44193e-09
8.40869e-09
2.41677e-09
1.08502e-08
3.73491e-09
1.32117e-08
5.45846e-09
1.54143e-08
7.65891e-09
1.73631e-08
1.04184e-08
1.89449e-08
1.38312e-08
2.00253e-08
1.80053e-08
2.04469e-08
2.30643e-08
2.00254e-08
2.91492e-08
1.85469e-08
3.64209e-08
1.5764e-08
4.50622e-08
1.13916e-08
5.52806e-08
5.10255e-09
6.73104e-08
-3.47736e-09
8.14152e-08
-1.47744e-08
9.78896e-08
-2.92726e-08
1.17062e-07
-4.75197e-08
1.39294e-07
-7.01325e-08
1.64981e-07
-9.78026e-08
1.94547e-07
-1.313e-07
2.28441e-07
-1.71481e-07
2.67124e-07
-2.19288e-07
3.11058e-07
-2.75768e-07
3.60696e-07
-3.42105e-07
4.16479e-07
-4.19673e-07
4.78928e-07
-5.10198e-07
-6.15676e-07
5.48211e-07
7.82283e-11
1.11022e-09
3.36418e-10
3.27298e-09
8.12828e-10
5.47524e-09
1.5517e-09
7.66982e-09
2.60408e-09
9.79783e-09
4.02877e-09
1.1787e-08
5.89335e-09
1.35497e-08
8.2754e-09
1.49811e-08
1.12639e-08
1.59564e-08
1.49607e-08
1.63286e-08
1.9482e-08
1.59255e-08
2.49606e-08
1.45468e-08
3.15476e-08
1.19599e-08
3.94147e-08
7.89686e-09
4.87566e-08
2.04969e-09
5.97932e-08
-5.93398e-09
7.27715e-08
-1.64558e-08
8.79687e-08
-2.99716e-08
1.05693e-07
-4.69972e-08
1.26286e-07
-6.81126e-08
1.50121e-07
-9.3967e-08
1.776e-07
-1.25282e-07
2.0915e-07
-1.62851e-07
2.45215e-07
-2.07546e-07
2.86236e-07
-2.60308e-07
3.32629e-07
-3.22162e-07
3.84773e-07
-3.94249e-07
4.4298e-07
-4.77881e-07
5.07694e-07
-5.74912e-07
-6.86547e-07
5.78566e-07
8.37476e-11
1.02647e-09
3.60817e-10
2.99591e-09
8.72894e-10
4.96317e-09
1.6681e-09
6.87461e-09
2.80188e-09
8.66406e-09
4.33796e-09
1.02509e-08
6.34948e-09
1.15382e-08
8.92025e-09
1.24103e-08
1.21462e-08
1.27305e-08
1.61366e-08
1.23381e-08
2.10165e-08
1.10457e-08
2.69277e-08
8.63557e-09
3.40314e-08
4.85609e-09
4.25105e-08
-5.82198e-10
5.2571e-08
-8.01081e-09
6.44449e-08
-1.78079e-08
7.83922e-08
-3.0403e-08
9.47028e-08
-4.62822e-08
1.13698e-07
-6.59919e-08
1.35729e-07
-9.01436e-08
1.61178e-07
-1.19416e-07
1.90453e-07
-1.54557e-07
2.2398e-07
-1.96378e-07
2.6219e-07
-2.45756e-07
3.05497e-07
-3.03615e-07
3.54264e-07
-3.70928e-07
4.08762e-07
-4.48748e-07
4.69095e-07
-5.38214e-07
5.35549e-07
-6.41366e-07
-7.58044e-07
6.07045e-07
8.98639e-11
9.36607e-10
3.87567e-10
2.69821e-09
9.38254e-10
4.41248e-09
1.79398e-09
6.01889e-09
3.01462e-09
7.44342e-09
4.66892e-09
8.5966e-09
6.83565e-09
9.37146e-09
9.60492e-09
9.64102e-09
1.30796e-08
9.2558e-09
1.73768e-08
8.04083e-09
2.263e-08
5.79253e-09
2.89904e-08
2.27517e-09
3.66293e-08
-2.78284e-09
4.57401e-08
-9.693e-09
5.65403e-08
-1.8811e-08
6.92737e-08
-3.05413e-08
8.42124e-08
-4.53417e-08
1.01658e-07
-6.37276e-08
1.21941e-07
-8.62755e-08
1.45424e-07
-1.13626e-07
1.72493e-07
-1.46485e-07
2.03556e-07
-1.8562e-07
2.39036e-07
-2.31858e-07
2.79346e-07
-2.86066e-07
3.24872e-07
-3.49141e-07
3.75922e-07
-4.21978e-07
4.32653e-07
-5.05479e-07
4.94864e-07
-6.00425e-07
5.62317e-07
-7.08819e-07
-8.28647e-07
6.32921e-07
9.67289e-11
8.39877e-10
4.17262e-10
2.37767e-09
1.01025e-09
3.81949e-09
1.93172e-09
5.09742e-09
3.24605e-09
6.12909e-09
5.02704e-09
6.81561e-09
7.35917e-09
7.03932e-09
1.03389e-08
6.6613e-09
1.40761e-08
5.51858e-09
1.86958e-08
3.42113e-09
2.43398e-08
1.48515e-10
3.11687e-08
-4.55367e-09
3.93635e-08
-1.09776e-08
4.9128e-08
-1.94576e-08
6.06909e-08
-3.03738e-08
7.4307e-08
-4.41574e-08
9.0259e-08
-6.12938e-08
1.08858e-07
-8.23269e-08
1.30445e-07
-1.07862e-07
1.55384e-07
-1.38565e-07
1.84065e-07
-1.75166e-07
2.16893e-07
-2.18448e-07
2.54277e-07
-2.69242e-07
2.96616e-07
-3.28405e-07
3.44269e-07
-3.96795e-07
3.97514e-07
-4.75223e-07
4.56446e-07
-5.64411e-07
5.20697e-07
-6.64675e-07
5.8898e-07
-7.77102e-07
-8.94705e-07
6.55038e-07
1.04459e-10
7.35417e-10
4.50365e-10
2.03177e-09
1.08992e-09
3.17993e-09
2.08318e-09
4.10417e-09
3.49906e-09
4.71321e-09
5.4165e-09
4.89818e-09
7.92569e-09
4.53012e-09
1.11295e-08
3.45752e-09
1.51448e-08
1.50326e-09
2.01044e-08
-1.53844e-09
2.61584e-08
-5.90551e-09
3.34764e-08
-1.18716e-08
4.22491e-08
-1.97504e-08
5.26904e-08
-2.98989e-08
6.5039e-08
-4.27224e-08
7.95597e-08
-5.86781e-08
9.65444e-08
-7.82785e-08
1.16312e-07
-1.02094e-07
1.39207e-07
-1.30757e-07
1.65597e-07
-1.64955e-07
1.95867e-07
-2.05436e-07
2.30411e-07
-2.52993e-07
2.69622e-07
-3.08453e-07
3.13874e-07
-3.72657e-07
3.63506e-07
-4.46426e-07
4.18794e-07
-5.30511e-07
4.79901e-07
-6.25518e-07
5.46913e-07
-7.31687e-07
6.19665e-07
-8.49854e-07
-9.77636e-07
7.02596e-07
1.13142e-10
6.22274e-10
4.87215e-10
1.65769e-09
1.17802e-09
2.48913e-09
2.24968e-09
3.03251e-09
3.7757e-09
3.18719e-09
5.84019e-09
2.83369e-09
8.53906e-09
1.83125e-09
1.19815e-08
1.50714e-11
1.62915e-08
-2.80668e-09
2.16092e-08
-6.85618e-09
2.80931e-08
-1.23894e-08
3.59215e-08
-1.97001e-08
4.52944e-08
-2.91232e-08
5.64347e-08
-4.10392e-08
6.95904e-08
-5.58781e-08
8.50345e-08
-7.41222e-08
1.03066e-07
-9.63099e-08
1.24008e-07
-1.23037e-07
1.48207e-07
-1.54956e-07
1.76027e-07
-1.92775e-07
2.07842e-07
-2.37251e-07
2.44028e-07
-2.89178e-07
2.84947e-07
-3.49373e-07
3.30937e-07
-4.18646e-07
3.82283e-07
-4.97773e-07
4.392e-07
-5.87427e-07
5.01813e-07
-6.8813e-07
5.7025e-07
-8.00125e-07
6.44401e-07
-9.24004e-07
-1.05703e-06
7.23793e-07
1.22823e-10
4.9945e-10
5.27993e-10
1.25252e-09
1.27496e-09
1.74216e-09
2.43195e-09
1.87552e-09
4.0771e-09
1.54204e-09
6.29966e-09
6.11135e-10
9.20126e-09
-1.07035e-09
1.28973e-08
-3.68101e-09
1.75187e-08
-7.42803e-09
2.3213e-08
-1.25505e-08
3.01467e-08
-1.93231e-08
3.85063e-08
-2.80596e-08
4.85001e-08
-3.9117e-08
6.03595e-08
-5.28987e-08
7.43401e-08
-6.98586e-08
9.07214e-08
-9.05036e-08
1.09807e-07
-1.15395e-07
1.31921e-07
-1.45151e-07
1.57407e-07
-1.80442e-07
1.8662e-07
-2.21987e-07
2.19915e-07
-2.70546e-07
2.57641e-07
-3.26904e-07
3.0012e-07
-3.91852e-07
3.4763e-07
-4.66156e-07
4.00373e-07
-5.50516e-07
4.5845e-07
-6.45504e-07
5.2185e-07
-7.5153e-07
5.90421e-07
-8.68697e-07
6.6357e-07
-9.97153e-07
-1.13348e-06
7.40026e-07
1.33516e-10
3.65933e-10
5.72754e-10
8.13282e-10
1.38085e-09
9.34067e-10
2.63018e-09
6.26189e-10
4.4035e-09
-2.31284e-10
6.79516e-09
-1.78053e-09
9.91244e-09
-4.18763e-09
1.38769e-08
-7.64552e-09
1.88261e-08
-1.23772e-08
2.49149e-08
-1.86393e-08
3.2317e-08
-2.67252e-08
4.12267e-08
-3.69693e-08
5.18598e-08
-4.97501e-08
6.44548e-08
-6.54937e-08
7.92733e-08
-8.4677e-08
9.6599e-08
-1.07829e-07
1.16737e-07
-1.35533e-07
1.4001e-07
-1.68424e-07
1.66752e-07
-2.07184e-07
1.97302e-07
-2.52538e-07
2.31994e-07
-3.05238e-07
2.71136e-07
-3.66047e-07
3.15e-07
-4.35716e-07
3.63788e-07
-5.14944e-07
4.176e-07
-6.04328e-07
4.76414e-07
-7.04318e-07
5.40049e-07
-8.15166e-07
6.08096e-07
-9.36743e-07
6.797e-07
-1.06876e-06
-1.20736e-06
7.53573e-07
1.45205e-10
2.20728e-10
6.21429e-10
3.37059e-10
1.49553e-09
5.99637e-11
2.84405e-09
-7.22326e-10
4.75432e-09
-2.14156e-09
7.32576e-09
-4.35197e-09
1.06712e-08
-7.53305e-09
1.49182e-08
-1.18925e-08
2.02107e-08
-1.76697e-08
2.67102e-08
-2.51388e-08
3.45975e-08
-3.46125e-08
4.40735e-08
-4.64454e-08
5.53607e-08
-6.10372e-08
6.8703e-08
-7.88361e-08
8.43661e-08
-1.0034e-07
1.02636e-07
-1.26099e-07
1.23815e-07
-1.56713e-07
1.4822e-07
-1.92829e-07
1.76172e-07
-2.35136e-07
2.07989e-07
-2.84355e-07
2.43972e-07
-3.4122e-07
2.84386e-07
-4.0646e-07
3.29439e-07
-4.80769e-07
3.79246e-07
-5.64751e-07
4.33805e-07
-6.58887e-07
4.92972e-07
-7.63486e-07
5.56406e-07
-8.78599e-07
6.23518e-07
-1.00386e-06
6.93355e-07
-1.13859e-06
-1.27872e-06
7.64715e-07
1.57849e-10
6.28792e-11
6.73845e-10
-1.78935e-10
1.6186e-09
-8.84791e-10
3.07278e-09
-2.17651e-09
5.12829e-09
-4.19707e-09
7.88951e-09
-7.11319e-09
1.14746e-08
-1.11182e-08
1.6017e-08
-1.64349e-08
2.16665e-08
-2.33193e-08
2.85911e-08
-3.20633e-08
3.69774e-08
-4.29988e-08
4.70325e-08
-5.65005e-08
5.89839e-08
-7.29886e-08
7.30795e-08
-9.29316e-08
8.95867e-08
-1.16847e-07
1.0879e-07
-1.45302e-07
1.30988e-07
-1.7891e-07
1.56486e-07
-2.18326e-07
1.85587e-07
-2.64238e-07
2.18582e-07
-3.17351e-07
2.55734e-07
-3.78372e-07
2.97255e-07
-4.47982e-07
3.4328e-07
-5.26794e-07
3.93836e-07
-6.15307e-07
4.48824e-07
-7.13875e-07
5.07978e-07
-8.2264e-07
5.70822e-07
-9.41442e-07
6.36661e-07
-1.06969e-06
7.04496e-07
-1.20643e-06
-1.34747e-06
7.73246e-07
1.71381e-10
-1.08501e-10
7.29742e-10
-7.37295e-10
1.74944e-09
-1.90449e-09
3.31526e-09
-3.74233e-09
5.52357e-09
-6.40538e-09
8.4836e-09
-1.00732e-08
1.23187e-08
-1.49533e-08
1.71676e-08
-2.12838e-08
2.31859e-08
-2.93375e-08
3.05469e-08
-3.94243e-08
3.94429e-08
-5.18948e-08
5.00854e-08
-6.7143e-08
6.27057e-08
-8.56089e-08
7.75538e-08
-1.0778e-07
9.48966e-08
-1.3419e-07
1.15015e-07
-1.65421e-07
1.38197e-07
-2.02093e-07
1.64735e-07
-2.44864e-07
1.94908e-07
-2.94411e-07
2.28976e-07
-3.51418e-07
2.67155e-07
-4.16551e-07
3.09598e-07
-4.90425e-07
3.56362e-07
-5.73557e-07
4.07391e-07
-6.66336e-07
4.62489e-07
-7.68973e-07
5.21273e-07
-8.81425e-07
5.83167e-07
-1.00334e-06
6.47404e-07
-1.13393e-06
7.12978e-07
-1.272e-06
-1.41341e-06
7.78923e-07
1.85721e-10
-2.94221e-10
7.8879e-10
-1.34036e-09
1.8873e-09
-3.003e-09
3.57006e-09
-5.4251e-09
5.93783e-09
-8.77315e-09
9.10447e-09
-1.32399e-08
1.31982e-08
-1.9047e-08
1.83629e-08
-2.64485e-08
2.4759e-08
-3.57337e-08
3.25648e-08
-4.72301e-08
4.19769e-08
-6.13069e-08
5.32104e-08
-7.83765e-08
6.64985e-08
-9.8897e-08
8.20911e-08
-1.23372e-07
1.00252e-07
-1.52351e-07
1.21255e-07
-1.86424e-07
1.45377e-07
-2.26215e-07
1.72888e-07
-2.72375e-07
2.04042e-07
-3.25565e-07
2.39059e-07
-3.86435e-07
2.78106e-07
-4.55598e-07
3.21268e-07
-5.33587e-07
3.68528e-07
-6.20818e-07
4.19749e-07
-7.17557e-07
4.74632e-07
-8.23856e-07
5.32698e-07
-9.39491e-07
5.93299e-07
-1.06394e-06
6.55619e-07
-1.19625e-06
7.18666e-07
-1.33505e-06
-1.47633e-06
7.81581e-07
2.00778e-10
-4.94998e-10
8.50607e-10
-1.99019e-09
2.03126e-09
-4.18365e-09
3.83553e-09
-7.22937e-09
6.36834e-09
-1.1306e-08
9.74799e-09
-1.66195e-08
1.41072e-08
-2.34063e-08
1.95945e-08
-3.19358e-08
2.63747e-08
-4.25139e-08
3.463e-08
-5.54855e-08
4.45604e-08
-7.12372e-08
5.63829e-08
-9.0199e-08
7.03312e-08
-1.12845e-07
8.66526e-08
-1.39694e-07
1.05605e-07
-1.71304e-07
1.27453e-07
-2.08271e-07
1.52455e-07
-2.51217e-07
1.8086e-07
-3.0078e-07
2.12888e-07
-3.57593e-07
2.48717e-07
-4.22264e-07
2.88456e-07
-4.95337e-07
3.32122e-07
-5.77253e-07
3.79628e-07
-6.68324e-07
4.3075e-07
-7.68678e-07
4.85096e-07
-8.78202e-07
5.42115e-07
-9.96511e-07
6.011e-07
-1.12292e-06
6.61205e-07
-1.25636e-06
7.21473e-07
-1.39532e-06
-1.536e-06
7.81143e-07
2.16447e-10
-7.11444e-10
9.14769e-10
-2.68851e-09
2.18035e-09
-5.44924e-09
4.1098e-09
-9.15882e-09
6.81207e-09
-1.40082e-08
1.04096e-08
-2.0217e-08
1.50392e-08
-2.80359e-08