/*--------------------------------*- C++ -*----------------------------------*\
| =========                 |                                                 |
| \\      /  F ield         | foam-extend: Open Source CFD                    |
|  \\    /   O peration     | Version:     4.0                                |
|   \\  /    A nd           | Web:         http://www.foam-extend.org         |
|    \\/     M anipulation  |                                                 |
\*---------------------------------------------------------------------------*/
FoamFile
{
    version     2.0;
    format      ascii;
    class       volVectorField;
    location    "70";
    object      U;
}
// * * * * * * * * * * * * * * * * * * * * * * * * * * * * * * * * * * * * * //

dimensions      [0 1 -1 0 0 0 0];

internalField   nonuniform List<vector> 
36000
(
(-2.88551e-07 1.34708e-06 -2.54233e-25)
(-2.89418e-06 3.83722e-06 2.62492e-25)
(-8.33459e-06 6.20183e-06 0)
(-1.66731e-05 8.43489e-06 0)
(-2.79224e-05 1.05312e-05 -2.27635e-25)
(-4.21123e-05 1.24859e-05 -2.15856e-25)
(-5.92732e-05 1.42944e-05 0)
(-7.94157e-05 1.59531e-05 0)
(-0.000102527 1.74591e-05 0)
(-0.000128571 1.88104e-05 0)
(-0.000157489 2.00059e-05 0)
(-0.000189198 2.10449e-05 -3.01666e-25)
(-0.000223592 2.19278e-05 -5.01346e-28)
(-0.00026054 2.26552e-05 -2.63809e-25)
(-0.000299889 2.32284e-05 2.46369e-25)
(-0.000341457 2.36487e-05 -2.29177e-25)
(-0.000385042 2.39179e-05 4.27252e-25)
(-0.000430414 2.40376e-05 -1.9863e-25)
(-0.00047732 2.40086e-05 1.84113e-25)
(-0.000525478 2.38314e-05 5.12687e-25)
(-0.000574577 2.35051e-05 1.48442e-28)
(-0.000624275 2.3027e-05 5.85267e-25)
(-0.00067419 2.23922e-05 -1.34987e-25)
(-0.000723899 2.15934e-05 -2.48913e-25)
(-0.000772928 2.062e-05 -2.29359e-25)
(-0.000820741 1.94584e-05 0)
(-0.000866734 1.80914e-05 0)
(-0.000910224 1.64958e-05 0)
(-0.000950398 1.46353e-05 1.61063e-25)
(-0.000986237 1.24671e-05 -2.9428e-25)
(-4.26278e-07 4.04749e-06 0)
(-3.25963e-06 1.15338e-05 0)
(-8.8786e-06 1.86476e-05 0)
(-1.73458e-05 2.53705e-05 9.60811e-25)
(-2.86736e-05 3.16869e-05 -2.25267e-25)
(-4.28916e-05 3.75817e-05 2.1584e-25)
(-6.00293e-05 4.3041e-05 0)
(-8.00967e-05 4.80536e-05 0)
(-0.00010308 5.26106e-05 -7.28854e-25)
(-0.000128944 5.67056e-05 6.83611e-25)
(-0.000157627 6.03346e-05 -6.44003e-25)
(-0.000189047 6.34955e-05 6.02242e-25)
(-0.000223096 6.61886e-05 2.82177e-25)
(-0.000259643 6.84158e-05 2.63698e-25)
(-0.00029853 7.01802e-05 4.92086e-25)
(-0.000339576 7.14856e-05 0)
(-0.000382575 7.23367e-05 -1.28263e-24)
(-0.000427294 7.27378e-05 -1.25037e-27)
(-0.000473476 7.26915e-05 1.47498e-24)
(-0.000520834 7.21986e-05 -1.02504e-24)
(-0.000569052 7.12558e-05 -6.33607e-25)
(-0.00061778 6.98555e-05 5.86252e-25)
(-0.00066663 6.79825e-05 -5.40361e-25)
(-0.000715171 6.56143e-05 9.97611e-25)
(-0.000762918 6.27195e-05 3.87127e-29)
(-0.000809324 5.92566e-05 8.43175e-25)
(-0.000853778 5.51736e-05 -1.16175e-24)
(-0.00089559 5.04006e-05 0)
(-0.000933938 4.48301e-05 0)
(-0.000967555 3.83407e-05 0)
(-6.98077e-07 6.68353e-06 1.02151e-24)
(-3.98104e-06 1.90513e-05 5.16685e-27)
(-9.95271e-06 3.08103e-05 -1.51246e-24)
(-1.8674e-05 4.19297e-05 1.92648e-24)
(-3.01572e-05 5.23829e-05 -2.27863e-24)
(-4.44307e-05 6.21441e-05 -1.73499e-24)
(-6.15225e-05 7.11899e-05 3.27673e-24)
(-8.14414e-05 7.95009e-05 -1.54446e-24)
(-0.000104173 8.70617e-05 0)
(-0.000129678 9.38608e-05 0)
(-0.000157897 9.98907e-05 0)
(-0.000188744 0.000105147 0)
(-0.000222109 0.00010963 1.13243e-24)
(-0.000257857 0.000113342 -2.64272e-24)
(-0.000295829 0.000116286 1.97395e-24)
(-0.000335838 0.000118469 0)
(-0.000377673 0.000119898 8.56785e-25)
(-0.000421095 0.000120579 -7.95084e-25)
(-0.000465838 0.000120516 0)
(-0.000511607 0.00011971 0)
(-0.000558075 0.000118154 3.17193e-24)
(-0.000604877 0.000115836 -1.7579e-24)
(-0.000651613 0.000112731 0)
(-0.000697834 0.000108801 7.09024e-28)
(-0.000743035 0.000103994 -9.19435e-25)
(-0.000786652 9.82413e-05 -8.48162e-25)
(-0.000828051 9.14577e-05 7.7257e-25)
(-0.000866538 8.35274e-05 7.11161e-25)
(-0.000901271 7.42779e-05 0)
(-0.000930485 6.35343e-05 1.77198e-24)
(-1.09607e-06 9.21439e-06 0)
(-5.03786e-06 2.62761e-05 0)
(-1.15267e-05 4.251e-05 5.05691e-25)
(-2.0621e-05 5.78723e-05 -1.93371e-24)
(-3.23322e-05 7.23251e-05 3.66608e-24)
(-4.6687e-05 8.58314e-05 -2.60522e-24)
(-6.37112e-05 9.83575e-05 0)
(-8.34112e-05 0.000109875 0)
(-0.00010577 0.000120361 -2.1978e-24)
(-0.000130748 0.000129799 2.7519e-24)
(-0.000158281 0.000138175 -1.29044e-24)
(-0.000188281 0.000145483 -1.21379e-24)
(-0.000220634 0.000151721 2.2707e-24)
(-0.000255203 0.00015689 -2.11764e-24)
(-0.00029182 0.000160995 -9.88047e-25)
(-0.000330294 0.000164043 0)
(-0.000370406 0.000166042 -3.43674e-24)
(-0.000411907 0.000166999 -3.87747e-27)
(-0.000454519 0.00016692 2.96506e-24)
(-0.000497934 0.000165803 3.10017e-27)
(-0.000541808 0.000163641 2.1105e-27)
(-0.00058576 0.000160413 8.57299e-28)
(-0.000629364 0.000156084 -1.08518e-24)
(-0.00067215 0.000150603 2.00541e-24)
(-0.000713586 0.000143899 0)
(-0.000753077 0.000135877 -1.00297e-27)
(-0.000789963 0.000126419 3.10977e-24)
(-0.000823538 0.000115366 -1.42704e-24)
(-0.000852954 0.000102488 -3.91354e-24)
(-0.000875679 8.75839e-05 -3.55842e-24)
(-1.60887e-06 1.16024e-05 1.54711e-24)
(-6.40028e-06 3.31028e-05 -3.19955e-24)
(-1.35567e-05 5.35791e-05 2.03288e-24)
(-2.31327e-05 7.29745e-05 1.9432e-24)
(-3.51387e-05 9.1239e-05 -1.83833e-24)
(-4.95985e-05 0.000108323 8.70847e-25)
(-6.65344e-05 0.000124183 -2.47966e-24)
(-8.59495e-05 0.00013878 6.23393e-24)
(-0.000107824 0.000152082 -7.27586e-25)
(-0.000132114 0.000164066 1.38461e-24)
(-0.000158753 0.000174712 -1.3e-24)
(-0.000187648 0.000184009 1.21369e-24)
(-0.000218681 0.000191952 0)
(-0.000251706 0.00019854 0)
(-0.000286553 0.000203777 3.976e-24)
(-0.000323018 0.00020767 -1.84823e-24)
(-0.000360874 0.000210226 1.71895e-24)
(-0.000399858 0.000211454 1.59772e-24)
(-0.00043968 0.000211358 -2.97144e-24)
(-0.000480011 0.000209934 -4.13275e-24)
(-0.000520488 0.00020717 1.27443e-24)
(-0.000560705 0.000203041 4.72208e-24)
(-0.00060021 0.000197502 -2.17734e-24)
(-0.0006385 0.000190487 7.4087e-27)
(-0.000675012 0.000181906 1.8537e-24)
(-0.000709112 0.000171642 -1.70456e-24)
(-0.000740105 0.000159546 -1.55939e-24)
(-0.00076727 0.000145418 4.49963e-27)
(-0.000789791 0.000128971 1.29744e-24)
(-0.000804055 0.000110035 2.37525e-24)
(-2.22204e-06 1.38139e-05 4.66513e-24)
(-8.03047e-06 3.9437e-05 -1.07133e-24)
(-1.59868e-05 6.38674e-05 0)
(-2.61407e-05 8.70347e-05 -9.79147e-25)
(-3.85004e-05 0.000108876 -4.64103e-24)
(-5.30856e-05 0.000129329 5.26565e-24)
(-6.99139e-05 0.000148338 2.49686e-24)
(-8.89836e-05 0.000165853 -1.557e-24)
(-0.00011027 0.000181832 1.48315e-24)
(-0.000133726 0.000196243 -6.93519e-24)
(-0.000159278 0.000209059 3.90233e-24)
(-0.000186829 0.000220264 -1.22059e-24)
(-0.000216255 0.000229846 4.57101e-24)
(-0.000247401 0.000237801 -2.13365e-24)
(-0.000280088 0.000244131 -5.98138e-24)
(-0.000314103 0.00024884 3.71418e-24)
(-0.000349203 0.000251936 -3.45647e-24)
(-0.000385114 0.000253424 -4.79057e-27)
(-0.000421525 0.000253306 -1.50037e-24)
(-0.000458087 0.000251577 -1.3865e-24)
(-0.000494412 0.000248219 5.11962e-24)
(-0.000530066 0.000243199 -4.72916e-24)
(-0.000564564 0.000236464 0)
(-0.000597369 0.000227934 -2.01734e-24)
(-0.000627876 0.000217502 -1.85432e-24)
(-0.000655408 0.000205029 -3.42897e-24)
(-0.000679228 0.000190341 3.14474e-24)
(-0.00069859 0.000173202 0)
(-0.000712771 0.000153282 6.56799e-24)
(-0.000716764 0.000130461 -1.20067e-24)
(-2.91867e-06 1.58204e-05 0)
(-9.88403e-06 4.51982e-05 0)
(-1.87515e-05 7.32454e-05 0)
(-2.95641e-05 9.98777e-05 -7.35973e-27)
(-4.23267e-05 0.000125019 6.53771e-24)
(-5.70537e-05 0.000148593 -5.28865e-24)
(-7.37561e-05 0.00017053 3.3446e-24)
(-9.2426e-05 0.000190769 -6.29912e-24)
(-0.000113033 0.000209258 -1.48882e-24)
(-0.000135522 0.000225951 -2.7937e-24)
(-0.000159815 0.000240816 2.6163e-24)
(-0.000185806 0.000253826 1.2328e-24)
(-0.000213362 0.000264964 8.66973e-27)
(-0.000242322 0.00027422 0)
(-0.000272494 0.000281591 -9.84227e-27)
(-0.000303652 0.000287079 1.86365e-24)
(-0.000335539 0.000290687 -1.72893e-24)
(-0.000367863 0.000292418 1.60981e-24)
(-0.000400291 0.000292271 5.99073e-24)
(-0.000432452 0.000290236 -5.03354e-27)
(-0.00046393 0.000286289 -2.57434e-24)
(-0.000494257 0.00028039 -2.37179e-24)
(-0.000522914 0.000272475 -6.09058e-27)
(-0.000549323 0.000262452 -2.04025e-24)
(-0.000572838 0.000250198 -3.74174e-24)
(-0.000592731 0.000235556 5.15128e-24)
(-0.000608219 0.000218327 -1.56766e-24)
(-0.00061852 0.000198238 -2.88644e-24)
(-0.0006231 0.000174999 -5.27431e-24)
(-0.00061513 0.000148432 2.41479e-24)
(-3.68007e-06 1.7599e-05 -4.22064e-24)
(-1.19117e-05 5.03208e-05 0)
(-2.17776e-05 8.16071e-05 -4.17241e-24)
(-3.33125e-05 0.000111359 4.94143e-24)
(-4.65165e-05 0.000139486 -5.63578e-24)
(-6.13967e-05 0.000165899 7.11706e-24)
(-7.79556e-05 0.000190513 -6.72581e-24)
(-9.61771e-05 0.000213253 1.57328e-24)
(-0.000116022 0.000234055 2.97346e-24)
(-0.000137429 0.000252862 -6.62721e-27)
(-0.000160309 0.00026963 -5.27518e-24)
(-0.000184549 0.000284323 4.94142e-24)
(-0.000210005 0.000296915 -4.61138e-24)
(-0.000236505 0.00030739 -8.62907e-24)
(-0.000263842 0.000315737 6.0292e-24)
(-0.000291778 0.000321954 1.87025e-24)
(-0.000320039 0.000326037 -5.23858e-24)
(-0.00034831 0.000327987 -3.25073e-24)
(-0.000376239 0.000327796 -3.00219e-24)
(-0.000403426 0.000325449 8.37132e-24)
(-0.000429424 0.000320916 -2.59419e-24)
(-0.000453733 0.000314148 6.53867e-27)
(-0.000475796 0.000305071 -4.42888e-24)
(-0.000494991 0.000293581 8.14388e-24)
(-0.000510627 0.000279539 3.74204e-24)
(-0.000521927 0.000262766 -3.44235e-24)
(-0.00052806 0.000243051 1.10083e-26)
(-0.000528184 0.000220108 2.90982e-24)
(-0.000522137 0.000193646 5.30208e-24)
(-0.000500612 0.000163537 -7.2749e-24)
(-4.48651e-06 1.91329e-05 4.26816e-24)
(-1.40614e-05 5.4756e-05 -5.51511e-24)
(-2.49876e-05 8.88722e-05 -4.20923e-24)
(-3.72897e-05 0.000121368 3.98986e-24)
(-5.09612e-05 0.000152138 3.79392e-24)
(-6.59999e-05 0.000181077 -1.78135e-24)
(-8.23978e-05 0.000208087 0)
(-0.000100128 0.000233079 0)
(-0.000119142 0.000255972 1.49865e-24)
(-0.000139366 0.000276699 2.81696e-24)
(-0.000160702 0.000295202 7.95072e-24)
(-0.000183025 0.000311435 -4.9634e-24)
(-0.000206179 0.000325361 -1.43383e-26)
(-0.000229978 0.000336954 4.34265e-24)
(-0.000254201 0.000346197 -2.02431e-24)
(-0.000278593 0.000353078 -3.76778e-24)
(-0.000302861 0.00035759 1.05256e-23)
(-0.000326668 0.000359724 3.25477e-24)
(-0.000349636 0.000359467 9.9253e-27)
(-0.000371339 0.000356797 8.47453e-27)
(-0.000391296 0.000351676 -5.00235e-27)
(-0.000408973 0.000344047 2.40203e-24)
(-0.000423772 0.000333826 6.65515e-24)
(-0.000435032 0.000320894 2.07982e-26)
(-0.000442014 0.000305098 3.77093e-24)
(-0.000443891 0.000286253 -1.04183e-23)
(-0.000439791 0.000264126 -6.37368e-24)
(-0.000428768 0.000238416 4.59135e-27)
(-0.000411291 0.000208815 2.68167e-24)
(-0.000374761 0.000175319 4.84678e-24)
(-5.31791e-06 2.04117e-05 -3.22941e-24)
(-1.62797e-05 5.84723e-05 5.56047e-24)
(-2.83017e-05 9.49868e-05 -2.13272e-24)
(-4.13963e-05 0.000129827 6.06224e-24)
(-5.55483e-05 0.000162873 -3.81849e-24)
(-7.07438e-05 0.000194003 -1.80094e-24)
(-8.69618e-05 0.000223105 -6.83785e-24)
(-0.000104163 0.000250073 6.43389e-24)
(-0.000122285 0.000274814 -3.04194e-24)
(-0.000141242 0.000297245 0)
(-0.000160923 0.000317293 -5.34337e-24)
(-0.000181189 0.000334901 4.99689e-24)
(-0.000201869 0.00035002 -2.34829e-24)
(-0.000222762 0.000362614 4.36361e-24)
(-0.000243631 0.000372655 2.0299e-24)
(-0.000264201 0.000380122 0)
(-0.000284157 0.000385 2.00402e-26)
(-0.000303141 0.000387271 0)
(-0.000320747 0.000386916 1.63562e-26)
(-0.000336518 0.000383904 5.64642e-24)
(-0.000349943 0.00037819 5.2357e-24)
(-0.000360451 0.000369704 2.41663e-24)
(-0.000367408 0.000358353 -1.33654e-23)
(-0.00037011 0.000344014 9.12811e-27)
(-0.000367779 0.000326517 0)
(-0.000359535 0.000305653 6.97784e-24)
(-0.000344455 0.000281174 -7.34516e-27)
(-0.000321418 0.000252792 8.84454e-24)
(-0.000291959 0.000220133 0)
(-0.000239229 0.000183556 -4.88607e-24)
(-6.15459e-06 2.14312e-05 1.10681e-24)
(-1.8514e-05 6.14548e-05 2.26422e-24)
(-3.16408e-05 9.99235e-05 4.28723e-24)
(-4.55331e-05 0.000136695 -1.22205e-23)
(-6.01644e-05 0.000171633 5.77081e-24)
(-7.55069e-05 0.000204601 -5.47087e-24)
(-9.1524e-05 0.000235471 1.37789e-23)
(-0.000108161 0.000264122 -6.48748e-24)
(-0.000125339 0.000290445 6.1081e-24)
(-0.000142959 0.000314341 0)
(-0.000160893 0.000335725 0)
(-0.000178985 0.000354523 7.56465e-24)
(-0.000197048 0.000370675 4.90252e-27)
(-0.000214864 0.000384132 -4.39235e-24)
(-0.000232175 0.000394855 1.11947e-26)
(-0.000248687 0.000402813 -1.35583e-26)
(-0.000264062 0.00040798 -7.0874e-24)
(-0.000277914 0.000410329 3.29418e-24)
(-0.000289812 0.000409833 -3.0496e-24)
(-0.000299268 0.000406451 2.84399e-24)
(-0.000305739 0.000400127 -1.04787e-23)
(-0.000308621 0.000390791 -9.71911e-24)
(-0.000307245 0.000378335 4.49035e-24)
(-0.000300867 0.00036262 8.28029e-24)
(-0.000288665 0.000343465 -3.8207e-24)
(-0.000269713 0.000320647 -3.49873e-24)
(-0.000243047 0.000293896 0)
(-0.000207239 0.00026295 -5.90206e-24)
(-0.000165272 0.000227123 0)
(-9.59392e-05 0.000188686 7.35875e-24)
(-6.97788e-06 2.2193e-05 -2.18953e-24)
(-2.07141e-05 6.37054e-05 6.84847e-24)
(-3.49288e-05 0.000103681 -8.63296e-24)
(-4.96036e-05 0.000141962 -2.06348e-26)
(-6.46984e-05 0.000178399 3.89529e-24)
(-8.01689e-05 0.00021284 -9.20247e-24)
(-9.59602e-05 0.00024514 6.9461e-24)
(-0.000111999 0.000275163 0)
(-0.00012819 0.000302785 3.09398e-24)
(-0.000144413 0.000327891 -8.6797e-24)
(-0.000160523 0.00035038 0)
(-0.000176345 0.000370164 -1.01455e-23)
(-0.000191675 0.000387169 4.73809e-24)
(-0.000206271 0.000401334 -4.43894e-24)
(-0.000219858 0.000412606 -4.09853e-24)
(-0.000232115 0.000420942 7.66435e-24)
(-0.000242679 0.000426305 0)
(-0.000251141 0.000428658 3.32425e-24)
(-0.000257038 0.000427963 6.15226e-24)
(-0.000259855 0.000424175 -1.14107e-23)
(-0.00025902 0.00041723 5.2771e-24)
(-0.000253896 0.00040704 -4.88985e-24)
(-0.000243773 0.000393494 -4.50662e-24)
(-0.00022787 0.000376438 -4.15557e-24)
(-0.000205326 0.000355679 -8.54009e-27)
(-0.000175179 0.000330987 0)
(-0.000136457 0.000302073 -6.49701e-24)
(-8.74187e-05 0.000268782 0)
(-3.16765e-05 0.000229464 0)
(5.338e-05 0.000190008 4.9703e-24)
(-7.77067e-06 2.27042e-05 2.23986e-24)
(-2.28334e-05 6.52406e-05 -2.31438e-24)
(-3.80944e-05 0.00010628 -1.09361e-23)
(-5.35167e-05 0.000145653 1.03687e-23)
(-6.90442e-05 0.000183193 -9.82688e-24)
(-8.46132e-05 0.000218734 1.1166e-23)
(-0.000100148 0.000252117 -7.01616e-24)
(-0.000115554 0.000283191 1.32085e-23)
(-0.000130715 0.000311815 -6.20637e-24)
(-0.00014549 0.000337858 2.90197e-24)
(-0.000159713 0.000361205 2.72094e-24)
(-0.000173188 0.000381754 -5.12667e-24)
(-0.000185688 0.000399414 0)
(-0.000196951 0.000414112 4.45347e-24)
(-0.000206673 0.00042578 1.24412e-26)
(-0.000214511 0.000434364 7.73859e-24)
(-0.000220074 0.000439814 -7.19143e-24)
(-0.000222926 0.000442083 3.34511e-24)
(-0.000222582 0.000441128 -6.16781e-24)
(-0.000218492 0.000436888 1.14429e-23)
(-0.000210056 0.000429291 0)
(-0.000196602 0.000418243 0)
(-0.000177385 0.000403621 9.04591e-24)
(-0.000151588 0.000385261 4.16926e-24)
(-0.000118313 0.000362959 -7.69808e-24)
(-7.65574e-05 0.000336477 -3.55785e-24)
(-2.5312e-05 0.000305521 6.49702e-24)
(3.70107e-05 0.000269917 5.99059e-24)
(0.000107424 0.000227481 5.49852e-24)
(0.000208665 0.000186467 -4.95548e-24)
(-8.5178e-06 2.29766e-05 -1.12506e-23)
(-2.483e-05 6.60901e-05 2.31437e-24)
(-4.10726e-05 0.000107764 0)
(-5.71881e-05 0.000147817 0)
(-7.31018e-05 0.000186069 -7.94668e-24)
(-8.87283e-05 0.000222339 3.76846e-24)
(-0.000103968 0.000256454 0)
(-0.000118703 0.000288249 0)
(-0.000132794 0.000317567 -3.11826e-24)
(-0.000146074 0.000344265 8.82325e-24)
(-0.000158354 0.000368209 -2.15185e-26)
(-0.000169417 0.000389283 2.58328e-24)
(-0.000179008 0.000407385 -1.77419e-26)
(-0.000186839 0.000422423 -8.95487e-24)
(-0.000192579 0.000434319 8.36941e-24)
(-0.000195858 0.000443005 2.4087e-26)
(-0.000196261 0.000448419 3.60184e-24)
(-0.000193325 0.000450506 1.34326e-23)
(-0.000186534 0.000449209 -1.86548e-23)
(-0.000175314 0.000444461 0)
(-0.000159029 0.000436181 0)
(-0.000136975 0.000424266 9.86428e-24)
(-0.000108376 0.000408581 -4.5476e-24)
(-7.23809e-05 0.000388954 4.20394e-24)
(-2.80585e-05 0.000365171 -3.86555e-24)
(2.56307e-05 0.000336984 2.13415e-23)
(8.97198e-05 0.000304077 -1.0878e-27)
(0.000165694 0.000266205 -8.99232e-24)
(0.000250934 0.000221343 2.02819e-26)
(0.000368979 0.000178189 9.97406e-24)
(-9.20623e-06 2.30254e-05 -6.82428e-24)
(-2.66672e-05 6.62942e-05 9.4109e-24)
(-4.38058e-05 0.000108194 0)
(-6.05418e-05 0.000148531 -8.48091e-24)
(-7.67792e-05 0.000187112 3.99087e-24)
(-9.24089e-05 0.000223745 0)
(-0.000107306 0.000258242 3.58865e-24)
(-0.000121325 0.000290425 -3.37642e-24)
(-0.0001343 0.000320125 -3.14429e-24)
(-0.000146037 0.000347183 -2.94956e-24)
(-0.000156326 0.000371452 2.7626e-24)
(-0.000164916 0.000392804 -1.03737e-23)
(-0.000171524 0.000411119 9.68636e-24)
(-0.000175832 0.000426292 4.53157e-24)
(-0.000177485 0.000438231 -8.41142e-24)
(-0.000176088 0.000446858 2.40701e-26)
(-0.000171197 0.000452101 -7.26751e-24)
(-0.000162321 0.000453893 -6.72487e-24)
(-0.000148915 0.000452167 6.23521e-24)
(-0.000130373 0.000446848 5.78841e-24)
(-0.000106028 0.000437846 1.07209e-23)
(-7.51463e-05 0.000425049 -9.88407e-24)
(-3.69218e-05 0.000408315 0)
(9.52685e-06 0.000387464 -8.41585e-24)
(6.51607e-05 0.00036227 -3.89426e-24)
(0.000131049 0.000332476 -3.54439e-24)
(0.000208242 0.000297742 9.84399e-24)
(0.000298191 0.000257797 -6.01643e-24)
(0.000398376 0.000210693 -5.47146e-24)
(0.00053356 0.000165614 5.02509e-24)
(-9.82553e-06 2.28692e-05 -2.29161e-24)
(-2.83153e-05 6.59019e-05 2.39226e-24)
(-4.6246e-05 0.000107642 -2.27187e-24)
(-6.3513e-05 0.000147886 -2.15301e-24)
(-7.99966e-05 0.000186431 4.0322e-24)
(-9.55611e-05 0.000223071 1.14953e-23)
(-0.000110053 0.00025761 -1.44224e-23)
(-0.000123299 0.000289854 3.37647e-24)
(-0.000135103 0.00031962 -3.17008e-24)
(-0.000145251 0.000346742 1.19449e-23)
(-0.000153487 0.000371063 -1.1182e-23)
(-0.000159534 0.00039243 5.20912e-24)
(-0.000163084 0.000410715 -1.46301e-23)
(-0.00016379 0.000425803 -9.08878e-24)
(-0.000161269 0.00043759 1.69337e-23)
(-0.000155094 0.000445987 3.94555e-24)
(-0.000144792 0.000450912 -1.46419e-23)
(-0.000129841 0.000452288 1.35777e-23)
(-0.000109665 0.000450037 -6.28418e-24)
(-8.36289e-05 0.000444077 -5.82924e-24)
(-5.1036e-05 0.00043431 2.36168e-26)
(-1.11233e-05 0.000420618 0)
(3.69432e-05 0.000402851 4.59368e-24)
(9.40718e-05 0.000380822 0)
(0.000161249 0.000354299 7.77376e-24)
(0.000239569 0.000323014 2.28309e-26)
(0.000330093 0.00028661 0)
(0.000434277 0.000244801 1.79472e-26)
(0.000549532 0.000195578 -5.49581e-24)
(0.00070206 0.000148993 5.03671e-24)
(-1.03681e-05 2.2529e-05 0)
(-2.97515e-05 6.49691e-05 -2.39226e-24)
(-4.83552e-05 0.000106194 -6.86208e-24)
(-6.60482e-05 0.000145993 1.51612e-23)
(-8.26854e-05 0.000184152 -1.22969e-23)
(-9.81025e-05 0.000220459 -3.84052e-24)
(-0.000112116 0.000254705 1.09021e-23)
(-0.00012452 0.000286688 -3.4374e-24)
(-0.000135089 0.000316215 3.22403e-24)
(-0.000143572 0.000343105 -6.02419e-24)
(-0.000149686 0.000367187 5.63287e-24)
(-0.000153123 0.000388305 -5.26779e-24)
(-0.000153542 0.000406318 -3.52326e-26)
(-0.000150565 0.000421098 4.20057e-27)
(-0.000143777 0.000432533 4.27771e-24)
(-0.000132718 0.000440523 0)
(-0.000116885 0.000444976 7.33003e-24)
(-9.57242e-05 0.000445805 -6.79821e-24)
(-6.86285e-05 0.000442928 0)
(-3.49334e-05 0.000436254 5.82892e-24)
(6.08696e-06 0.000425679 1.035e-26)
(5.52241e-05 0.000411081 -4.98895e-24)
(0.000113338 0.000392304 -1.38131e-23)
(0.000181361 0.000369157 -8.497e-24)
(0.000260301 0.000341402 0)
(0.000351272 0.000308763 -7.17522e-24)
(0.000455341 0.000270866 0)
(0.000573987 0.000227422 -6.05166e-24)
(0.000704418 0.000176258 0)
(0.000874494 0.000128604 -9.99444e-24)
(-1.08283e-05 2.20271e-05 0)
(-3.09571e-05 6.35566e-05 0)
(-5.01003e-05 0.000103944 0)
(-6.80993e-05 0.000142973 -8.74503e-24)
(-8.47811e-05 0.000180422 1.23771e-23)
(-9.99511e-05 0.000216071 -7.80311e-24)
(-0.000113393 0.000249704 3.68993e-24)
(-0.000124869 0.000281113 6.90562e-24)
(-0.000134119 0.000310096 0)
(-0.000140857 0.00033646 -6.09695e-24)
(-0.000144769 0.000360029 1.13529e-23)
(-0.000145512 0.000380636 -1.32276e-26)
(-0.000142711 0.000398131 -6.38274e-27)
(-0.000135954 0.000412378 -4.59324e-24)
(-0.000124793 0.000423256 4.30088e-24)
(-0.000108734 0.000430656 0)
(-8.72403e-05 0.000434479 -1.48004e-23)
(-5.9727e-05 0.000434633 1.37042e-23)
(-2.55551e-05 0.000431027 -6.34804e-24)
(1.59703e-05 0.000423568 0)
(6.56042e-05 0.000412148 -5.42073e-24)
(0.000124165 0.000396639 5.00849e-24)
(0.000192538 0.000376886 4.60317e-24)
(0.000271676 0.000352695 4.23071e-24)
(0.000362603 0.000323824 0)
(0.000466448 0.000289994 7.21322e-24)
(0.000584278 0.000250812 0)
(0.000717583 0.000205996 0)
(0.000863312 0.000153123 5.63047e-24)
(0.00105114 0.000104863 9.97091e-24)
(-1.12025e-05 2.13857e-05 0)
(-3.19191e-05 6.17247e-05 0)
(-5.14562e-05 0.000100987 0)
(-6.96264e-05 0.00013895 8.83407e-24)
(-8.62276e-05 0.00017539 8.34458e-24)
(-0.000101033 0.00021008 -1.18356e-23)
(-0.000113792 0.000242801 3.71963e-24)
(-0.000124233 0.000273339 -6.9408e-24)
(-0.00013206 0.000301484 6.53204e-24)
(-0.000136952 0.000327042 -1.2265e-23)
(-0.000138558 0.000349825 1.77404e-26)
(-0.000136501 0.000369662 1.73103e-26)
(-0.000130369 0.000386397 5.00996e-24)
(-0.000119715 0.000399887 0)
(-0.000104053 0.000410005 -1.29227e-23)
(-8.28561e-05 0.000416635 8.02073e-24)
(-5.55532e-05 0.000419675 7.41262e-24)
(-2.15248e-05 0.000419026 -6.90482e-24)
(1.99e-05 0.000414597 6.38941e-24)
(6.94473e-05 0.000406288 -5.89015e-24)
(0.000127901 0.000393992 1.08893e-23)
(0.000196106 0.000377582 -5.02745e-24)
(0.000274969 0.000356903 0)
(0.000365462 0.000331761 1.70539e-23)
(0.000468621 0.000301916 -1.57229e-23)
(0.00058558 0.000267086 5.18002e-27)
(0.00071738 0.000226869 -6.63268e-24)
(0.000865552 0.000180984 -6.07841e-24)
(0.0010267 0.000126684 -5.56159e-24)
(0.00123249 7.83258e-05 0)
(-1.14889e-05 2.06257e-05 0)
(-3.26283e-05 5.95323e-05 0)
(-5.24031e-05 9.74144e-05 4.68294e-24)
(-7.0596e-05 0.000134049 -8.88396e-24)
(-8.69744e-05 0.000169208 -8.42572e-24)
(-0.000101278 0.000202663 1.19122e-23)
(-0.000113222 0.000234193 -3.75883e-24)
(-0.000122498 0.00026358 -7.03025e-24)
(-0.000128774 0.000290614 3.31088e-24)
(-0.00013169 0.000315095 0)
(-0.000130861 0.000336833 1.153e-23)
(-0.000125869 0.000355654 -1.07827e-23)
(-0.000116266 0.000371396 0)
(-0.000101566 0.000383914 0)
(-8.12469e-05 0.000393077 -4.3561e-24)
(-5.47447e-05 0.000398766 -8.08573e-24)
(-2.14522e-05 0.000400876 7.49537e-24)
(1.92849e-05 0.000399308 6.90488e-24)
(6.81713e-05 0.000393968 -1.2809e-23)
(0.000125964 0.000384758 -5.93183e-24)
(0.000193477 0.000371573 5.476e-24)
(0.000271578 0.000354289 -5.03849e-24)
(0.000361196 0.000332754 4.65051e-24)
(0.000463316 0.000306781 0)
(0.000578977 0.000276133 -4.88566e-27)
(0.000709295 0.000240537 2.17069e-23)
(0.000855297 0.00019957 -6.64319e-24)
(0.00101854 0.000152963 0)
(0.00119521 9.75741e-05 1.11659e-23)
(0.00141915 4.96852e-05 -9.9772e-24)
(-1.16865e-05 1.97672e-05 0)
(-3.30784e-05 5.70352e-05 -1.00318e-23)
(-5.2925e-05 9.33168e-05 9.48004e-24)
(-7.09785e-05 0.000128389 4.52263e-24)
(-8.69748e-05 0.000162024 -8.52055e-24)
(-0.00010062 0.000193994 -3.98742e-24)
(-0.000111592 0.000224078 1.88639e-23)
(-0.000119547 0.000252059 -1.77426e-23)
(-0.000124114 0.000277727 1.00035e-23)
(-0.000124895 0.000300881 6.25082e-24)
(-0.000121467 0.000321331 5.84013e-24)
(-0.000113372 0.000338903 0)
(-0.000100122 0.000353435 -1.00999e-23)
(-8.11922e-05 0.00036478 9.41958e-24)
(-5.60213e-05 0.000372807 1.30857e-23)
(-2.40073e-05 0.000377398 -8.16958e-24)
(1.54946e-05 0.000378447 4.19544e-26)
(6.31748e-05 0.000375858 -6.95016e-24)
(0.000119772 0.000369538 6.41244e-24)
(0.000186077 0.000359395 5.93205e-24)
(0.000262929 0.000345328 2.11096e-26)
(0.000351221 0.00032722 0)
(0.000451898 0.000304929 9.33675e-24)
(0.000565948 0.000278276 0)
(0.000694394 0.000247037 7.897e-24)
(0.000838344 0.000210943 1.42214e-26)
(0.000998784 0.000169558 6.64244e-24)
(0.00117728 0.000122627 -7.49751e-27)
(0.00136953 6.65373e-05 -2.22612e-23)
(0.00161171 1.9755e-05 1.50242e-23)
(-1.17952e-05 1.88278e-05 0)
(-3.32646e-05 5.42838e-05 -1.01357e-23)
(-5.30076e-05 8.87756e-05 2.40253e-23)
(-7.07458e-05 0.000122083 -4.53652e-24)
(-8.61827e-05 0.000153979 0)
(-9.89896e-05 0.000184241 3.87627e-26)
(-0.000108809 0.000212651 1.52305e-23)
(-0.000115258 0.000238994 -1.4331e-23)
(-0.000117927 0.000263064 -6.66345e-24)
(-0.00011638 0.000284663 6.31896e-24)
(-0.000110152 0.000303606 -2.34402e-23)
(-9.87464e-05 0.000319718 2.73666e-23)
(-8.16324e-05 0.000332842 -2.03731e-23)
(-5.82459e-05 0.000342833 4.73391e-24)
(-2.79847e-05 0.000349563 -8.78469e-24)
(9.7929e-06 0.000352919 8.15934e-24)
(5.57704e-05 0.000352797 7.6135e-24)
(0.000110676 0.000349107 -6.98507e-24)
(0.000175282 0.000341763 6.44415e-24)
(0.000250412 0.000330679 -5.96316e-24)
(0.000336931 0.000315764 1.79555e-26)
(0.000435754 0.000296913 0)
(0.00054783 0.000273998 -9.33505e-24)
(0.000674135 0.000246857 1.97602e-26)
(0.000815682 0.000215277 1.68879e-26)
(0.000973543 0.000178999 7.26341e-24)
(0.00114864 0.000137574 -6.66151e-24)
(0.00134252 9.07675e-05 1.22041e-23)
(0.00155035 3.44161e-05 1.11815e-23)
(0.00181069 -1.05535e-05 0)
(-1.18148e-05 1.78228e-05 9.94233e-24)
(-3.3182e-05 5.13225e-05 -2.57574e-24)
(-5.26364e-05 8.38639e-05 0)
(-6.98689e-05 0.000115232 -4.57498e-24)
(-8.45503e-05 0.000145203 0)
(-9.63171e-05 0.000173562 -4.07146e-24)
(-0.000104775 0.000200095 0)
(-0.000109502 0.000224596 -1.08001e-23)
(-0.00011005 0.000246864 -6.7027e-24)
(-0.000105944 0.000266707 1.90373e-23)
(-9.66774e-05 0.000283946 5.8879e-24)
(-8.17101e-05 0.000298414 -1.64973e-23)
(-6.04714e-05 0.000309957 3.31149e-26)
(-3.23545e-05 0.000318439 2.38335e-23)
(3.28425e-06 0.000323738 -2.99322e-26)
(4.71272e-05 0.000325747 -1.64615e-23)
(9.98978e-05 0.000324372 -7.58121e-24)
(0.000162362 0.00031953 0)
(0.000235327 0.000311145 6.48178e-24)
(0.000319646 0.000299144 5.98869e-24)
(0.000416209 0.000283449 -1.10803e-23)
(0.000525939 0.000263973 0)
(0.000649779 0.000240607 -9.39064e-24)
(0.000788698 0.000213209 -8.60796e-24)
(0.000943668 0.000181581 -7.90952e-24)
(0.0011157 0.00014548 -7.24339e-24)
(0.00130562 0.000104441 6.67043e-24)
(0.00151493 5.82547e-05 -1.21982e-23)
(0.0017382 2.12897e-06 1.20568e-26)
(0.00201639 -4.02756e-05 9.91999e-24)
(-1.17449e-05 1.67645e-05 0)
(-3.28244e-05 4.81884e-05 -2.71503e-26)
(-5.17948e-05 7.86445e-05 -1.47451e-23)
(-6.83159e-05 0.000107924 4.63019e-24)
(-8.20259e-05 0.000135812 0)
(-9.25262e-05 0.0001621 2.06554e-23)
(-9.93853e-05 0.000186584 -3.49751e-23)
(-0.000102144 0.000209066 7.30957e-24)
(-0.000100314 0.000229355 -1.36376e-23)
(-9.3379e-05 0.00024727 6.43297e-24)
(-8.07904e-05 0.00026264 0)
(-6.19672e-05 0.000275307 0)
(-3.62954e-05 0.000285128 -5.19033e-24)
(-3.12548e-06 0.000291976 4.8221e-24)
(3.82284e-05 0.00029574 0)
(8.84905e-05 0.000296324 8.23719e-24)
(0.000148424 0.000293645 0)
(0.000218832 0.000287633 1.41501e-23)
(0.000300557 0.000278227 -6.54335e-24)
(0.000394478 0.000265369 0)
(0.000501497 0.000249001 -5.58779e-24)
(0.000622539 0.00022906 0)
(0.000758544 0.000205457 1.88061e-23)
(0.000910443 0.000178076 8.65459e-24)
(0.00107915 0.000146742 7.94512e-24)
(0.00126557 0.000111228 0)
(0.00147039 7.10508e-05 1.46955e-26)
(0.00169502 2.602e-05 6.11606e-24)
(0.00193343 -2.93501e-05 -1.11821e-23)
(0.00222873 -6.84181e-05 -9.91431e-24)
(-1.15837e-05 1.56627e-05 1.01556e-23)
(-3.21831e-05 4.49114e-05 -2.65852e-24)
(-5.0462e-05 7.31694e-05 -5.19682e-26)
(-6.60496e-05 0.000100237 1.40433e-23)
(-7.85514e-05 0.000125907 -1.33205e-23)
(-8.75339e-05 0.000149983 -4.15146e-24)
(-9.25288e-05 0.000172272 -3.79872e-26)
(-9.30385e-05 0.000192589 -3.47092e-26)
(-8.85359e-05 0.000210754 0)
(-7.84629e-05 0.000226599 -1.28622e-23)
(-6.22285e-05 0.000239966 1.80101e-23)
(-3.92099e-05 0.000250709 -1.12244e-23)
(-8.74957e-06 0.0002587 1.04222e-23)
(2.98449e-05 0.000263824 -4.82247e-24)
(7.73021e-05 0.000265986 0)
(0.000134388 0.000265102 8.34652e-24)
(0.000201905 0.000261107 -4.03993e-26)
(0.000280692 0.000253946 -7.0864e-24)
(0.000371623 0.000243577 6.55191e-24)
(0.00047559 0.000229965 -6.06493e-24)
(0.000593509 0.000213075 2.22991e-23)
(0.000726301 0.000192868 -2.05225e-23)
(0.000874876 0.000169287 9.45062e-24)
(0.00104011 0.000142245 -3.46601e-23)
(0.00122281 0.000111595 -1.58806e-23)
(0.00142375 7.71302e-05 2.23535e-26)
(0.00164343 3.83389e-05 1.33891e-23)
(0.00188307 -4.96539e-06 1.83412e-23)
(0.00213609 -5.90132e-05 -5.60153e-24)
(0.00244722 -9.40071e-05 0)
(-1.13282e-05 1.45242e-05 -1.02661e-23)
(-3.12456e-05 4.15142e-05 -5.72027e-26)
(-4.86118e-05 6.74797e-05 4.98736e-24)
(-6.30258e-05 9.22314e-05 4.70502e-24)
(-7.40609e-05 0.000115574 -2.23844e-23)
(-8.12487e-05 0.000137323 3.37112e-23)
(-8.40846e-05 0.0001573 -2.37611e-23)
(-8.2033e-05 0.000175334 3.71481e-23)
(-7.45272e-05 0.000191261 -1.3936e-23)
(-6.09674e-05 0.000204928 -1.95073e-23)
(-4.07217e-05 0.000216192 1.21783e-23)
(-1.31241e-05 0.000224925 4.70663e-26)
(2.25257e-05 0.000231015 5.29675e-24)
(6.69632e-05 0.000234365 0)
(0.000120959 0.000234895 9.02485e-24)
(0.00018532 0.000232542 -8.33755e-24)
(0.000260887 0.000227258 1.54931e-23)
(0.00034853 0.000219012 -7.13285e-24)
(0.000449141 0.000207784 -6.58513e-24)
(0.000563631 0.000193564 -6.07129e-24)
(0.000692917 0.000176344 -1.67344e-23)
(0.000837899 0.000156116 2.05971e-23)
(0.000999437 0.00013286 9.44716e-24)
(0.00117832 0.000106524 -6.27242e-26)
(0.00137521 7.69973e-05 -2.6516e-26)
(0.0015907 4.40931e-05 0)
(0.001825 7.26805e-06 2.77341e-26)
(0.00207907 -3.37084e-05 -2.44719e-23)
(0.00234593 -8.58423e-05 5.49461e-24)
(0.00267081 -0.000116149 -1.00958e-23)
(-1.09738e-05 1.33535e-05 9.78485e-27)
(-2.99949e-05 3.80128e-05 1.60251e-23)
(-4.62115e-05 6.16068e-05 0)