/*--------------------------------*- C++ -*----------------------------------*\
| =========                 |                                                 |
| \\      /  F ield         | foam-extend: Open Source CFD                    |
|  \\    /   O peration     | Version:     4.0                                |
|   \\  /    A nd           | Web:         http://www.foam-extend.org         |
|    \\/     M anipulation  |                                                 |
\*---------------------------------------------------------------------------*/
FoamFile
{
    version     2.0;
    format      ascii;
    class       regIOobject;
    location    "45/uniform";
    object      profilingInfo;
}
// * * * * * * * * * * * * * * * * * * * * * * * * * * * * * * * * * * * * * //

profilingInfo
(

    {
        id              15;
        parentId        11;
        description     "Foam::Time::writeObject - outputTime";
        calls           8;
        totalTime       1.23751;
        childTime       0;
        onStack         1;
    }

    {
        id              11;
        parentId        1;
        description     "Foam::Time::writeObject";
        calls           8000;
        totalTime       1.27106;
        childTime       1.23751;
        onStack         1;
    }

    {
        id              1;
        description     "application::main";
        calls           1;
        totalTime       5125.91;
        childTime       4531.92;
        onStack         1;
    }

    {
        id              14;
        parentId        12;
        description     "FO::forces::execute";
        calls           7999;
        totalTime       0.015721;
        childTime       0;
        onStack         0;
    }

    {
        id              5;
        parentId        3;
        description     "FO::forces::start";
        calls           1;
        totalTime       0.000133;
        childTime       0;
        onStack         0;
    }

    {
        id              13;
        parentId        12;
        description     "FO::pressProbes::execute";
        calls           7999;
        totalTime       0.404294;
        childTime       0;
        onStack         0;
    }

    {
        id              4;
        parentId        3;
        description     "FO::pressProbes::start";
        calls           1;
        totalTime       0.002494;
        childTime       0;
        onStack         0;
    }

    {
        id              3;
        parentId        2;
        description     "functionObjectList::read";
        calls           1;
        totalTime       0.013948;
        childTime       0.002627;
        onStack         0;
    }

    {
        id              12;
        parentId        1;
        description     "functionObjects_.execute()";
        calls           7999;
        totalTime       0.454572;
        childTime       0.420015;
        onStack         0;
    }

    {
        id              2;
        parentId        1;
        description     "functionObjects_.start()";
        calls           1;
        totalTime       0.013956;
        childTime       0.013948;
        onStack         0;
    }

    {
        id              6;
        parentId        1;
        description     "fvMatrix::solve_U";
        calls           8000;
        totalTime       3654.26;
        childTime       3641.76;
        onStack         0;
    }

    {
        id              9;
        parentId        1;
        description     "fvMatrix::solve_p";
        calls           16000;
        totalTime       875.916;
        childTime       870.311;
        onStack         0;
    }

    {
        id              7;
        parentId        6;
        description     "lduMatrix::solver_Ux";
        calls           8000;
        totalTime       34.3734;
        childTime       0;
        onStack         0;
    }

    {
        id              8;
        parentId        6;
        description     "lduMatrix::solver_Uy";
        calls           8000;
        totalTime       3607.38;
        childTime       0;
        onStack         0;
    }

    {
        id              10;
        parentId        9;
        description     "lduMatrix::solver_p";
        calls           16000;
        totalTime       870.311;
        childTime       0;
        onStack         0;
    }
);


// ************************************************************************* //
