/*--------------------------------*- C++ -*----------------------------------*\
| =========                 |                                                 |
| \\      /  F ield         | foam-extend: Open Source CFD                    |
|  \\    /   O peration     | Version:     4.0                                |
|   \\  /    A nd           | Web:         http://www.foam-extend.org         |
|    \\/     M anipulation  |                                                 |
\*---------------------------------------------------------------------------*/
FoamFile
{
    version     2.0;
    format      ascii;
    class       regIOobject;
    location    "30/uniform";
    object      profilingInfo;
}
// * * * * * * * * * * * * * * * * * * * * * * * * * * * * * * * * * * * * * //

profilingInfo
(

    {
        id              15;
        parentId        11;
        description     "Foam::Time::writeObject - outputTime";
        calls           5;
        totalTime       0.639728;
        childTime       0;
        onStack         1;
    }

    {
        id              11;
        parentId        1;
        description     "Foam::Time::writeObject";
        calls           5000;
        totalTime       0.659795;
        childTime       0.639728;
        onStack         1;
    }

    {
        id              1;
        description     "application::main";
        calls           1;
        totalTime       4432.15;
        childTime       4101.56;
        onStack         1;
    }

    {
        id              14;
        parentId        12;
        description     "FO::forces::execute";
        calls           4999;
        totalTime       0.009273;
        childTime       0;
        onStack         0;
    }

    {
        id              5;
        parentId        3;
        description     "FO::forces::start";
        calls           1;
        totalTime       0.000133;
        childTime       0;
        onStack         0;
    }

    {
        id              13;
        parentId        12;
        description     "FO::pressProbes::execute";
        calls           4999;
        totalTime       0.231552;
        childTime       0;
        onStack         0;
    }

    {
        id              4;
        parentId        3;
        description     "FO::pressProbes::start";
        calls           1;
        totalTime       0.002494;
        childTime       0;
        onStack         0;
    }

    {
        id              3;
        parentId        2;
        description     "functionObjectList::read";
        calls           1;
        totalTime       0.013948;
        childTime       0.002627;
        onStack         0;
    }

    {
        id              12;
        parentId        1;
        description     "functionObjects_.execute()";
        calls           4999;
        totalTime       0.260064;
        childTime       0.240825;
        onStack         0;
    }

    {
        id              2;
        parentId        1;
        description     "functionObjects_.start()";
        calls           1;
        totalTime       0.013956;
        childTime       0.013948;
        onStack         0;
    }

    {
        id              6;
        parentId        1;
        description     "fvMatrix::solve_U";
        calls           5000;
        totalTime       3619.86;
        childTime       3612.46;
        onStack         0;
    }

    {
        id              9;
        parentId        1;
        description     "fvMatrix::solve_p";
        calls           10000;
        totalTime       480.774;
        childTime       477.585;
        onStack         0;
    }

    {
        id              7;
        parentId        6;
        description     "lduMatrix::solver_Ux";
        calls           5000;
        totalTime       19.2629;
        childTime       0;
        onStack         0;
    }

    {
        id              8;
        parentId        6;
        description     "lduMatrix::solver_Uy";
        calls           5000;
        totalTime       3593.19;
        childTime       0;
        onStack         0;
    }

    {
        id              10;
        parentId        9;
        description     "lduMatrix::solver_p";
        calls           10000;
        totalTime       477.585;
        childTime       0;
        onStack         0;
    }
);


// ************************************************************************* //
