/*--------------------------------*- C++ -*----------------------------------*\
| =========                 |                                                 |
| \\      /  F ield         | foam-extend: Open Source CFD                    |
|  \\    /   O peration     | Version:     4.0                                |
|   \\  /    A nd           | Web:         http://www.foam-extend.org         |
|    \\/     M anipulation  |                                                 |
\*---------------------------------------------------------------------------*/
FoamFile
{
    version     2.0;
    format      ascii;
    class       volScalarField;
    location    "10";
    object      p;
}
// * * * * * * * * * * * * * * * * * * * * * * * * * * * * * * * * * * * * * //

dimensions      [0 2 -2 0 0 0 0];

internalField   nonuniform List<scalar> 
36000
(
-3.00786e-06
-3.02537e-06
-3.03781e-06
-3.04043e-06
-3.03248e-06
-3.01325e-06
-2.98155e-06
-2.93598e-06
-2.87508e-06
-2.79733e-06
-2.70122e-06
-2.58533e-06
-2.44841e-06
-2.28953e-06
-2.10823e-06
-1.90469e-06
-1.67992e-06
-1.43589e-06
-1.17569e-06
-9.03526e-07
-6.24709e-07
-3.45471e-07
-7.26728e-08
1.86752e-07
4.26448e-07
6.40465e-07
8.2378e-07
9.73417e-07
1.08749e-06
1.17119e-06
-3.03898e-06
-3.05619e-06
-3.06831e-06
-3.07066e-06
-3.06248e-06
-3.04305e-06
-3.0112e-06
-2.96553e-06
-2.90457e-06
-2.82681e-06
-2.73075e-06
-2.61495e-06
-2.47816e-06
-2.31943e-06
-2.13829e-06
-1.9349e-06
-1.71024e-06
-1.46626e-06
-1.20601e-06
-9.33682e-07
-6.54545e-07
-3.74818e-07
-1.01348e-07
1.58974e-07
3.99727e-07
6.14915e-07
7.99533e-07
9.50583e-07
1.06605e-06
1.15161e-06
-3.10124e-06
-3.11783e-06
-3.12933e-06
-3.13113e-06
-3.12248e-06
-3.10267e-06
-3.07051e-06
-3.02463e-06
-2.96355e-06
-2.88578e-06
-2.78981e-06
-2.67419e-06
-2.53765e-06
-2.37922e-06
-2.1984e-06
-1.9953e-06
-1.77086e-06
-1.52697e-06
-1.26662e-06
-9.93932e-07
-7.14142e-07
-4.33423e-07
-1.58592e-07
1.03525e-07
3.46393e-07
5.63928e-07
7.51158e-07
9.05035e-07
1.02329e-06
1.11258e-06
-3.19435e-06
-3.21002e-06
-3.22057e-06
-3.22156e-06
-3.21222e-06
-3.19183e-06
-3.15922e-06
-3.11302e-06
-3.05177e-06
-2.97398e-06
-2.87813e-06
-2.76276e-06
-2.62659e-06
-2.4686e-06
-2.28825e-06
-2.08558e-06
-1.86145e-06
-1.61767e-06
-1.35715e-06
-1.08392e-06
-8.03135e-07
-5.20914e-07
-2.44016e-07
2.07658e-08
2.66778e-07
4.87833e-07
6.78969e-07
8.37064e-07
9.59477e-07
1.05431e-06
-3.31786e-06
-3.33232e-06
-3.34164e-06
-3.34155e-06
-3.33129e-06
-3.31013e-06
-3.27692e-06
-3.2303e-06
-3.16882e-06
-3.09099e-06
-2.9953e-06
-2.88026e-06
-2.74456e-06
-2.58714e-06
-2.40739e-06
-2.20526e-06
-1.98152e-06
-1.73787e-06
-1.47709e-06
-1.20311e-06
-9.20989e-07
-6.36751e-07
-3.5705e-07
-8.87524e-08
1.61369e-07
3.87114e-07
5.83429e-07
7.47105e-07
8.75009e-07
9.77192e-07
-3.47123e-06
-3.48419e-06
-3.49198e-06
-3.49056e-06
-3.47917e-06
-3.45706e-06
-3.4231e-06
-3.37594e-06
-3.31417e-06
-3.23629e-06
-3.14078e-06
-3.02613e-06
-2.891e-06
-2.73426e-06
-2.55522e-06
-2.35373e-06
-2.13044e-06
-1.8869e-06
-1.62576e-06
-1.35082e-06
-1.06699e-06
-7.80187e-07
-4.97001e-07
-2.2437e-07
3.08492e-08
2.62422e-07
4.65151e-07
6.35725e-07
7.70408e-07
8.81683e-07
-3.65375e-06
-3.66495e-06
-3.67093e-06
-3.66794e-06
-3.65519e-06
-3.63196e-06
-3.5971e-06
-3.54932e-06
-3.48719e-06
-3.40923e-06
-3.31391e-06
-3.19971e-06
-3.06522e-06
-2.90925e-06
-2.73101e-06
-2.53024e-06
-2.30742e-06
-2.06396e-06
-1.80234e-06
-1.52618e-06
-1.24026e-06
-9.50342e-07
-6.6302e-07
-3.85247e-07
-1.23946e-07
1.14557e-07
3.24884e-07
5.03624e-07
6.46314e-07
7.68364e-07
-3.86462e-06
-3.8738e-06
-3.8777e-06
-3.87291e-06
-3.85861e-06
-3.83408e-06
-3.79819e-06
-3.74967e-06
-3.68712e-06
-3.60906e-06
-3.51393e-06
-3.40021e-06
-3.26642e-06
-3.11129e-06
-2.93392e-06
-2.7339e-06
-2.51157e-06
-2.26812e-06
-2.00585e-06
-1.7282e-06
-1.43977e-06
-1.14623e-06
-8.541e-07
-5.70367e-07
-3.02032e-07
-5.55457e-08
1.63513e-07
3.51623e-07
5.03482e-07
6.37912e-07
-4.10293e-06
-4.10983e-06
-4.11142e-06
-4.10459e-06
-4.08856e-06
-4.06256e-06
-4.02551e-06
-3.97615e-06
-3.9131e-06
-3.83489e-06
-3.73996e-06
-3.62673e-06
-3.49368e-06
-3.33944e-06
-3.16297e-06
-2.96373e-06
-2.74184e-06
-2.4983e-06
-2.2352e-06
-1.95575e-06
-1.6644e-06
-1.36669e-06
-1.06908e-06
-7.78585e-07
-5.023e-07
-2.46822e-07
-1.7961e-08
1.80653e-07
3.42766e-07
4.91085e-07
-4.36764e-06
-4.37205e-06
-4.37109e-06
-4.36203e-06
-4.34408e-06
-4.31646e-06
-4.27812e-06
-4.22781e-06
-4.16419e-06
-4.08579e-06
-3.99104e-06
-3.8783e-06
-3.746e-06
-3.59266e-06
-3.4171e-06
-3.2186e-06
-2.99709e-06
-2.75333e-06
-2.48916e-06
-2.2076e-06
-1.91289e-06
-1.61044e-06
-1.30668e-06
-1.00864e-06
-7.23521e-07
-4.58094e-07
-2.18423e-07
-8.2467e-09
1.65124e-07
3.28738e-07
-4.65766e-06
-4.65938e-06
-4.65565e-06
-4.64417e-06
-4.62413e-06
-4.59475e-06
-4.55498e-06
-4.50363e-06
-4.43936e-06
-4.36072e-06
-4.2661e-06
-4.15384e-06
-4.02227e-06
-3.86982e-06
-3.69514e-06
-3.49733e-06
-3.27607e-06
-3.03191e-06
-2.76642e-06
-2.48238e-06
-2.18385e-06
-1.87611e-06
-1.56552e-06
-1.25916e-06
-9.64359e-07
-6.88077e-07
-4.36659e-07
-2.13939e-07
-2.83879e-08
1.51836e-07
-4.97182e-06
-4.97065e-06
-4.96396e-06
-4.94988e-06
-4.9276e-06
-4.89631e-06
-4.855e-06
-4.80251e-06
-4.73751e-06
-4.65855e-06
-4.56402e-06
-4.4522e-06
-4.32133e-06
-4.16972e-06
-3.99585e-06
-3.79862e-06
-3.57745e-06
-3.33266e-06
-3.06555e-06
-2.77865e-06
-2.47582e-06
-2.1622e-06
-1.84411e-06
-1.52868e-06
-1.22339e-06
-9.35399e-07
-6.71363e-07
-4.35202e-07
-2.36634e-07
-3.85731e-08
-5.30885e-06
-5.30463e-06
-5.29481e-06
-5.27797e-06
-5.25331e-06
-5.21999e-06
-5.17702e-06
-5.12328e-06
-5.05748e-06
-4.97814e-06
-4.88363e-06
-4.77219e-06
-4.64195e-06
-4.49108e-06
-4.31792e-06
-4.12111e-06
-3.89985e-06
-3.65415e-06
-3.38506e-06
-3.09488e-06
-2.78723e-06
-2.46715e-06
-2.14089e-06
-1.81566e-06
-1.4991e-06
-1.1986e-06
-9.21151e-07
-6.70737e-07
-4.58415e-07
-2.41353e-07
-5.66748e-06
-5.66007e-06
-5.64694e-06
-5.62722e-06
-5.60004e-06
-5.56457e-06
-5.51984e-06
-5.46476e-06
-5.39805e-06
-5.31824e-06
-5.22368e-06
-5.11252e-06
-4.98282e-06
-4.83259e-06
-4.65998e-06
-4.46338e-06
-4.24177e-06
-3.99486e-06
-3.72342e-06
-3.42948e-06
-3.11648e-06
-2.78932e-06
-2.45423e-06
-2.11848e-06
-1.78991e-06
-1.47617e-06
-1.18457e-06
-9.19173e-07
-6.9245e-07
-4.55283e-07
-6.04636e-06
-6.03563e-06
-6.01908e-06
-5.99633e-06
-5.96653e-06
-5.92879e-06
-5.8822e-06
-5.82568e-06
-5.75797e-06
-5.67761e-06
-5.5829e-06
-5.47192e-06
-5.34262e-06
-5.19288e-06
-5.02062e-06
-4.824e-06
-4.60173e-06
-4.35323e-06
-4.079e-06
-3.78081e-06
-3.4619e-06
-3.12704e-06
-2.78245e-06
-2.4355e-06
-2.09422e-06
-1.76654e-06
-1.46014e-06
-1.17909e-06
-9.37387e-07
-6.79057e-07
-6.44413e-06
-6.42997e-06
-6.40988e-06
-6.384e-06
-6.35147e-06
-6.31137e-06
-6.26282e-06
-6.20476e-06
-6.13597e-06
-6.05495e-06
-5.95997e-06
-5.84904e-06
-5.71999e-06
-5.57053e-06
-5.39839e-06
-5.20146e-06
-4.97817e-06
-4.72768e-06
-4.45018e-06
-4.14719e-06
-3.82177e-06
-3.47858e-06
-3.12384e-06
-2.76501e-06
-2.41036e-06
-2.06811e-06
-1.74631e-06
-1.44908e-06
-1.19185e-06
-9.11306e-07
-6.85941e-06
-6.84173e-06
-6.818e-06
-6.7889e-06
-6.75355e-06
-6.71101e-06
-6.6604e-06
-6.60072e-06
-6.53074e-06
-6.44895e-06
-6.35357e-06
-6.24254e-06
-6.11355e-06
-5.96414e-06
-5.79182e-06
-5.59425e-06
-5.36955e-06
-5.11659e-06
-4.8353e-06
-4.52694e-06
-4.19439e-06
-3.84222e-06
-3.47666e-06
-3.10531e-06
-2.73668e-06
-2.37929e-06
-2.04159e-06
-1.72772e-06
-1.45444e-06
-1.15066e-06
-7.29078e-06
-7.26952e-06
-7.24208e-06
-7.20968e-06
-7.17144e-06
-7.12637e-06
-7.07363e-06
-7.01223e-06
-6.94095e-06
-6.85827e-06
-6.76235e-06
-6.65103e-06
-6.52188e-06
-6.37226e-06
-6.19944e-06
-6.00085e-06
-5.77428e-06
-5.51835e-06
-5.23268e-06
-4.91834e-06
-4.57801e-06
-4.21622e-06
-3.8392e-06
-3.45472e-06
-3.07153e-06
-2.69848e-06
-2.34446e-06
-2.0136e-06
-1.72376e-06
-1.39586e-06
-7.73686e-06
-7.71195e-06
-7.68074e-06
-7.64499e-06
-7.60379e-06
-7.55613e-06
-7.50118e-06
-7.43797e-06
-7.3653e-06
-7.28159e-06
-7.18496e-06
-7.07315e-06
-6.9436e-06
-6.79346e-06
-6.61977e-06
-6.4197e-06
-6.19078e-06
-5.93131e-06
-5.64067e-06
-5.31969e-06
-4.97093e-06
-4.59885e-06
-4.20975e-06
-3.81154e-06
-3.41327e-06
-3.02413e-06
-2.65343e-06
-2.30529e-06
-1.99856e-06
-1.64581e-06
-8.19623e-06
-8.16765e-06
-8.13263e-06
-8.09348e-06
-8.04927e-06
-7.99895e-06
-7.94172e-06
-7.87663e-06
-7.80243e-06
-7.71756e-06
-7.62005e-06
-7.50753e-06
-7.37728e-06
-7.22628e-06
-7.05132e-06
-6.8493e-06
-6.61748e-06
-6.35387e-06
-6.05761e-06
-5.72932e-06
-5.37145e-06
-4.98841e-06
-4.58661e-06
-4.17413e-06
-3.76032e-06
-3.35471e-06
-2.96704e-06
-2.60144e-06
-2.27765e-06
-1.89946e-06
-8.66751e-06
-8.63523e-06
-8.59637e-06
-8.55379e-06
-8.50653e-06
-8.45352e-06
-8.39394e-06
-8.32686e-06
-8.25104e-06
-8.16486e-06
-8.06626e-06
-7.95278e-06
-7.82154e-06
-7.6693e-06
-7.49261e-06
-7.28812e-06
-7.05281e-06
-6.78442e-06
-6.48185e-06
-6.14556e-06
-5.77788e-06
-5.38325e-06
-4.96816e-06
-4.5409e-06
-4.11113e-06
-3.68875e-06
-3.28391e-06
-2.90074e-06
-2.55986e-06
-2.15587e-06
-9.1493e-06
-9.11333e-06
-9.07062e-06
-9.02459e-06
-8.97426e-06
-8.9185e-06
-8.85652e-06
-8.78737e-06
-8.70981e-06
-8.62215e-06
-8.52226e-06
-8.40755e-06
-8.27497e-06
-8.12108e-06
-7.94218e-06
-7.73466e-06
-7.49523e-06
-7.22139e-06
-6.9118e-06
-6.56677e-06
-6.1886e-06
-5.78173e-06
-5.35278e-06
-4.91029e-06
-4.4642e-06
-4.02483e-06
-3.60271e-06
-3.20194e-06
-2.84404e-06
-2.41416e-06
-9.64025e-06
-9.60058e-06
-9.55402e-06
-9.50454e-06
-9.45112e-06
-9.39259e-06
-9.32814e-06
-9.25685e-06
-9.17742e-06
-9.08811e-06
-8.98671e-06
-8.87047e-06
-8.73619e-06
-8.5802e-06
-8.39859e-06
-8.18743e-06
-7.94322e-06
-7.6632e-06
-7.34586e-06
-6.99138e-06
-6.60201e-06
-6.18227e-06
-5.73894e-06
-5.28079e-06
-4.8181e-06
-4.36155e-06
-3.92213e-06
-3.50382e-06
-3.12901e-06
-2.67339e-06
-1.0139e-05
-1.00956e-05
-1.00452e-05
-9.99233e-06
-9.93581e-06
-9.87448e-06
-9.80752e-06
-9.734e-06
-9.65257e-06
-9.56144e-06
-9.45828e-06
-9.34022e-06
-9.20384e-06
-9.04527e-06
-8.86038e-06
-8.64497e-06
-8.39528e-06
-8.10835e-06
-7.7825e-06
-7.41782e-06
-7.01657e-06
-6.58336e-06
-6.12515e-06
-5.65096e-06
-5.17143e-06
-4.6976e-06
-4.24084e-06
-3.80511e-06
-3.41344e-06
-2.93253e-06
-1.06442e-05
-1.05972e-05
-1.0543e-05
-1.04866e-05
-1.0427e-05
-1.03629e-05
-1.02934e-05
-1.02175e-05
-1.0134e-05
-1.00408e-05
-9.93568e-06
-9.81545e-06
-9.67657e-06
-9.51492e-06
-9.32615e-06
-9.10582e-06
-8.84993e-06
-8.55533e-06
-8.2202e-06
-7.84459e-06
-7.43078e-06
-6.98352e-06
-6.50997e-06
-6.01943e-06
-5.52284e-06
-5.03171e-06
-4.55762e-06
-4.10458e-06
-3.69604e-06
-3.19061e-06
-1.11545e-05
-1.11039e-05
-1.10459e-05
-1.09862e-05
-1.09235e-05
-1.08565e-05
-1.07844e-05
-1.07062e-05
-1.06204e-05
-1.0525e-05
-1.04176e-05
-1.02948e-05
-1.0153e-05
-9.98777e-06
-9.7945e-06
-9.56856e-06
-9.30574e-06
-9.00269e-06
-8.65751e-06
-8.27022e-06
-7.8432e-06
-7.38135e-06
-6.89205e-06
-6.38487e-06
-5.87107e-06
-5.36261e-06
-4.87127e-06
-4.40122e-06
-3.97579e-06
-3.44724e-06
-1.16686e-05
-1.16144e-05
-1.15528e-05
-1.14897e-05
-1.14239e-05
-1.13541e-05
-1.12794e-05
-1.11987e-05
-1.11105e-05
-1.10127e-05
-1.09027e-05
-1.07771e-05
-1.06319e-05
-1.04625e-05
-1.02641e-05
-1.00318e-05
-9.76128e-06
-9.449e-06
-9.09299e-06
-8.69331e-06
-8.25245e-06
-7.77549e-06
-7.27006e-06
-6.74602e-06
-6.21492e-06
-5.68912e-06
-5.18051e-06
-4.69383e-06
-4.25098e-06
-3.70149e-06
-1.21852e-05
-1.21275e-05
-1.20622e-05
-1.19958e-05
-1.1927e-05
-1.18544e-05
-1.1777e-05
-1.16937e-05
-1.1603e-05
-1.15026e-05
-1.13898e-05
-1.12609e-05
-1.11118e-05
-1.09377e-05
-1.07335e-05
-1.04942e-05
-1.02152e-05
-9.89286e-06
-9.52526e-06
-9.11249e-06
-8.65719e-06
-8.16466e-06
-7.6428e-06
-7.10169e-06
-6.55323e-06
-6.01009e-06
-5.4839e-06
-4.97994e-06
-4.5142e-06
-3.94464e-06
-1.2703e-05
-1.26419e-05
-1.25731e-05
-1.25034e-05
-1.24316e-05
-1.23562e-05
-1.22761e-05
-1.21901e-05
-1.20967e-05
-1.19935e-05
-1.18775e-05
-1.1745e-05
-1.15915e-05
-1.14121e-05
-1.12014e-05
-1.09543e-05
-1.06661e-05
-1.03329e-05
-9.95298e-06
-9.52645e-06
-9.05615e-06
-8.54766e-06
-8.00916e-06
-7.45094e-06
-6.88518e-06
-6.32497e-06
-5.78094e-06
-5.25705e-06
-4.75333e-06
-4.16344e-06
-1.32207e-05
-1.31563e-05
-1.30839e-05
-1.30111e-05
-1.29363e-05
-1.28581e-05
-1.27753e-05
-1.26866e-05
-1.25904e-05
-1.24841e-05
-1.23647e-05
-1.22281e-05
-1.20697e-05
-1.18843e-05
-1.16666e-05
-1.14109e-05
-1.11126e-05
-1.07679e-05
-1.03748e-05
-9.93391e-06
-9.44811e-06
-8.92333e-06
-8.36802e-06
-7.79285e-06
-7.21031e-06
-6.63405e-06
-6.07341e-06
-5.5298e-06
-4.9832e-06
-4.4179e-06
-1.37371e-05
-1.36694e-05
-1.35936e-05
-1.35176e-05
-1.344e-05
-1.3359e-05
-1.32734e-05
-1.3182e-05
-1.30828e-05
-1.29732e-05
-1.28499e-05
-1.27088e-05
-1.2545e-05
-1.23532e-05
-1.21276e-05
-1.18626e-05
-1.15535e-05
-1.11964e-05
-1.07896e-05
-1.03336e-05
-9.83188e-06
-9.29054e-06
-8.71835e-06
-8.12639e-06
-7.52775e-06
-6.93686e-06
-6.36238e-06
-5.80873e-06
-5.26189e-06
-4.90612e-06
-1.42508e-05
-1.418e-05
-1.41008e-05
-1.40218e-05
-1.39413e-05
-1.38575e-05
-1.37692e-05
-1.36749e-05
-1.35725e-05
-1.34594e-05
-1.33321e-05
-1.3186e-05
-1.30163e-05
-1.28173e-05
-1.25831e-05
-1.23082e-05
-1.19874e-05
-1.16172e-05
-1.11959e-05
-1.07244e-05
-1.02063e-05
-9.64812e-06
-9.05901e-06
-8.45038e-06
-7.83595e-06
-7.23066e-06
-6.64225e-06
-6.07711e-06
-5.52478e-06
-5.20496e-06
-1.47605e-05
-1.46866e-05
-1.46043e-05
-1.45223e-05
-1.44391e-05
-1.43525e-05
-1.42614e-05
-1.41641e-05
-1.40585e-05
-1.39416e-05
-1.38098e-05
-1.36584e-05
-1.34822e-05
-1.32754e-05
-1.3032e-05
-1.27462e-05
-1.24131e-05
-1.20291e-05
-1.15927e-05
-1.11051e-05
-1.05702e-05
-9.99498e-06
-9.38889e-06
-8.76372e-06
-8.13368e-06
-7.51398e-06
-6.91118e-06
-6.33219e-06
-5.76515e-06
-5.42612e-06
-1.5265e-05
-1.51882e-05
-1.51028e-05
-1.50179e-05
-1.49319e-05
-1.48427e-05
-1.47487e-05
-1.46484e-05
-1.45393e-05
-1.44184e-05
-1.42818e-05
-1.41246e-05
-1.39414e-05
-1.37262e-05
-1.34729e-05
-1.31756e-05
-1.28294e-05
-1.24309e-05
-1.19788e-05
-1.14746e-05
-1.09226e-05
-1.03301e-05
-9.707e-06
-9.0654e-06
-8.41998e-06
-7.78588e-06
-7.16831e-06
-6.57431e-06
-5.99157e-06
-5.62955e-06
-1.5763e-05
-1.56833e-05
-1.55949e-05
-1.55073e-05
-1.54187e-05
-1.53267e-05
-1.52299e-05
-1.51264e-05
-1.50138e-05
-1.48886e-05
-1.47468e-05
-1.45834e-05
-1.43926e-05
-1.41684e-05
-1.39045e-05
-1.35949e-05
-1.3235e-05
-1.28213e-05
-1.23529e-05
-1.18317e-05
-1.12624e-05
-1.06526e-05
-1.00125e-05
-9.35461e-06
-8.69412e-06
-8.0457e-06
-7.41318e-06
-6.80418e-06
-6.20671e-06
-5.82224e-06
-1.62531e-05
-1.61707e-05
-1.60794e-05
-1.59891e-05
-1.5898e-05
-1.58034e-05
-1.57037e-05
-1.5597e-05
-1.54806e-05
-1.53509e-05
-1.52036e-05
-1.50335e-05
-1.48346e-05
-1.46007e-05
-1.43255e-05
-1.40031e-05
-1.36287e-05
-1.31992e-05
-1.27141e-05
-1.21755e-05
-1.15886e-05
-1.09614e-05
-1.03045e-05
-9.63061e-06
-8.95554e-06
-8.29287e-06
-7.64552e-06
-7.02229e-06
-6.41122e-06
-6.00504e-06
-1.6734e-05
-1.6649e-05
-1.6555e-05
-1.64622e-05
-1.63685e-05
-1.62713e-05
-1.61688e-05
-1.60588e-05
-1.59385e-05
-1.5804e-05
-1.56508e-05
-1.54735e-05
-1.52661e-05
-1.5022e-05
-1.47348e-05
-1.43988e-05
-1.40093e-05
-1.35636e-05
-1.30613e-05
-1.2505e-05
-1.19003e-05
-1.12557e-05
-1.05822e-05
-9.8927e-06
-9.20356e-06
-8.527e-06
-7.86525e-06
-7.22871e-06
-6.60523e-06
-6.17843e-06
-1.72044e-05
-1.71169e-05
-1.70203e-05
-1.69251e-05
-1.6829e-05
-1.67293e-05
-1.66239e-05
-1.65105e-05
-1.63861e-05
-1.62466e-05
-1.60872e-05
-1.59023e-05
-1.56857e-05
-1.54307e-05
-1.51311e-05
-1.47809e-05
-1.43758e-05
-1.39132e-05
-1.33933e-05
-1.28191e-05
-1.21967e-05
-1.15349e-05
-1.0845e-05
-1.01403e-05
-9.43762e-06
-8.74772e-06
-8.07219e-06
-7.42328e-06
-6.78858e-06
-6.34252e-06
-1.76629e-05
-1.75731e-05
-1.74741e-05
-1.73766e-05
-1.72782e-05
-1.71759e-05
-1.70676e-05
-1.69508e-05
-1.68221e-05
-1.66773e-05
-1.65113e-05
-1.63185e-05
-1.60922e-05
-1.58259e-05
-1.55131e-05
-1.51481e-05
-1.47269e-05
-1.42471e-05
-1.37094e-05
-1.31171e-05
-1.24769e-05
-1.17982e-05
-1.10922e-05
-1.03728e-05
-9.65723e-06
-8.95456e-06
-8.26604e-06
-7.60571e-06
-6.96092e-06
-6.49697e-06
-1.81082e-05
-1.80162e-05
-1.79149e-05
-1.78152e-05
-1.77146e-05
-1.76099e-05
-1.74987e-05
-1.73783e-05
-1.72452e-05
-1.70948e-05
-1.6922e-05
-1.67207e-05
-1.64842e-05
-1.6206e-05
-1.58796e-05
-1.54994e-05
-1.50615e-05
-1.45642e-05
-1.40084e-05
-1.3398e-05
-1.27402e-05
-1.20447e-05
-1.13232e-05
-1.05898e-05
-9.86186e-06
-9.14692e-06
-8.44646e-06
-7.77566e-06
-7.1218e-06
-6.64126e-06
-1.85389e-05
-1.84449e-05
-1.83414e-05
-1.82397e-05
-1.8137e-05
-1.80299e-05
-1.79157e-05
-1.77917e-05
-1.7654e-05
-1.74979e-05
-1.73178e-05
-1.71076e-05
-1.68606e-05
-1.657e-05
-1.62294e-05
-1.58334e-05
-1.53786e-05
-1.48634e-05
-1.42894e-05
-1.3661e-05
-1.29859e-05
-1.2274e-05
-1.15374e-05
-1.07909e-05
-1.0051e-05
-9.32419e-06
-8.61311e-06
-7.93272e-06
-7.27074e-06
-6.7748e-06
-1.89535e-05
-1.88576e-05
-1.87522e-05
-1.86486e-05
-1.85439e-05
-1.84344e-05
-1.83174e-05
-1.81897e-05
-1.80472e-05
-1.7885e-05
-1.76975e-05
-1.7478e-05
-1.722e-05
-1.69165e-05
-1.65612e-05
-1.61492e-05
-1.5677e-05
-1.51439e-05
-1.45516e-05
-1.39053e-05
-1.32131e-05
-1.24854e-05
-1.17342e-05
-1.09755e-05
-1.02242e-05
-9.48605e-06
-8.76554e-06
-8.07643e-06
-7.40721e-06
-6.89702e-06
-1.93507e-05
-1.92532e-05
-1.91459e-05
-1.90406e-05
-1.8934e-05
-1.88222e-05
-1.87023e-05
-1.85708e-05
-1.84234e-05
-1.8255e-05
-1.80596e-05
-1.78306e-05
-1.7561e-05
-1.72442e-05
-1.6874e-05
-1.64455e-05
-1.59558e-05
-1.54045e-05
-1.47941e-05
-1.41301e-05
-1.34212e-05
-1.26781e-05
-1.19131e-05
-1.11429e-05
-1.0381e-05
-9.63223e-06
-8.90325e-06
-8.20631e-06
-7.53072e-06
-7.0073e-06
-1.97291e-05
-1.96301e-05
-1.95212e-05
-1.94143e-05
-1.93059e-05
-1.91919e-05
-1.90691e-05
-1.89337e-05
-1.87813e-05
-1.86064e-05
-1.84029e-05
-1.81639e-05
-1.78826e-05
-1.75521e-05
-1.71665e-05
-1.67213e-05
-1.6214e-05
-1.56445e-05
-1.50161e-05
-1.43347e-05
-1.36096e-05
-1.28517e-05
-1.20735e-05
-1.12927e-05
-1.05212e-05
-9.76236e-06
-9.02581e-06
-8.3219e-06
-7.64075e-06
-7.10503e-06
-2.00873e-05
-1.99869e-05
-1.98767e-05
-1.97683e-05
-1.96582e-05
-1.95421e-05
-1.94163e-05
-1.92771e-05
-1.91195e-05
-1.89379e-05
-1.8726e-05
-1.84767e-05
-1.81833e-05
-1.78388e-05
-1.74377e-05
-1.69756e-05
-1.64505e-05
-1.58629e-05
-1.52167e-05
-1.45184e-05
-1.37776e-05
-1.30055e-05
-1.22151e-05
-1.14244e-05
-1.0644e-05
-9.8761e-06
-9.13284e-06
-8.42279e-06
-7.73687e-06
-7.1897e-06
-2.04238e-05
-2.03223e-05
-2.02108e-05
-2.01012e-05
-1.99896e-05
-1.98713e-05
-1.97427e-05
-1.95995e-05
-1.94366e-05
-1.92481e-05
-1.90275e-05
-1.87678e-05
-1.84619e-05
-1.81032e-05
-1.76863e-05
-1.72072e-05
-1.66643e-05
-1.60589e-05
-1.53952e-05
-1.46805e-05
-1.39247e-05
-1.31393e-05
-1.23376e-05
-1.15374e-05
-1.07486e-05
-9.97316e-06
-9.22401e-06
-8.50861e-06
-7.8187e-06
-7.26092e-06
-2.07373e-05
-2.06348e-05
-2.05224e-05
-2.04116e-05
-2.02986e-05
-2.01783e-05
-2.00468e-05
-1.98996e-05
-1.97313e-05
-1.95358e-05
-1.93063e-05
-1.90358e-05
-1.87172e-05
-1.83441e-05
-1.79112e-05
-1.74151e-05
-1.68547e-05
-1.62317e-05
-1.55509e-05
-1.48204e-05
-1.40503e-05
-1.32524e-05
-1.24405e-05
-1.16314e-05
-1.08348e-05
-1.00532e-05
-9.29897e-06
-8.57903e-06
-7.8859e-06
-7.31836e-06
-2.10263e-05
-2.09231e-05
-2.08099e-05
-2.06982e-05
-2.05839e-05
-2.04617e-05
-2.03273e-05
-2.0176e-05
-2.00022e-05
-1.97995e-05
-1.9561e-05
-1.92796e-05
-1.89481e-05
-1.85604e-05
-1.81116e-05
-1.75985e-05
-1.70207e-05
-1.63804e-05
-1.56832e-05
-1.49374e-05
-1.41538e-05
-1.33443e-05
-1.25233e-05
-1.17062e-05
-1.09025e-05
-1.01157e-05
-9.35738e-06
-8.63373e-06
-7.93817e-06
-7.36166e-06
-2.12896e-05
-2.11858e-05
-2.1072e-05
-2.09596e-05
-2.08441e-05
-2.07201e-05
-2.05829e-05
-2.04275e-05
-2.02481e-05
-2.00381e-05
-1.97904e-05
-1.94978e-05
-1.91534e-05
-1.87511e-05
-1.82863e-05
-1.77564e-05
-1.71614e-05
-1.65044e-05
-1.57913e-05
-1.50311e-05
-1.42348e-05
-1.34145e-05
-1.25855e-05
-1.17616e-05
-1.09514e-05
-1.01605e-05
-9.39894e-06
-8.67244e-06
-7.97522e-06
-7.39053e-06
-2.15256e-05
-2.14216e-05
-2.13073e-05
-2.11944e-05
-2.10779e-05
-2.09521e-05
-2.08122e-05
-2.06527e-05
-2.04676e-05
-2.02502e-05
-1.99932e-05
-1.96894e-05
-1.93319e-05
-1.8915e-05
-1.84343e-05
-1.78879e-05
-1.72762e-05
-1.66029e-05
-1.58747e-05
-1.51009e-05
-1.42928e-05
-1.34626e-05
-1.26267e-05
-1.17975e-05
-1.09813e-05
-1.01873e-05
-9.4234e-06
-8.69494e-06
-7.99683e-06
-7.40479e-06
-2.17331e-05
-2.1629e-05
-2.15146e-05
-2.14013e-05
-2.1284e-05
-2.11566e-05
-2.10139e-05
-2.08503e-05
-2.06596e-05
-2.04346e-05
-2.01683e-05
-1.98532e-05
-1.94827e-05
-1.90512e-05
-1.85549e-05
-1.79922e-05
-1.73643e-05
-1.66755e-05
-1.59329e-05
-1.51464e-05
-1.43276e-05
-1.34886e-05
-1.26465e-05
-1.18128e-05
-1.09921e-05
-1.01958e-05
-9.43056e-06
-8.70101e-06
-8.00284e-06
-7.40426e-06
-2.19109e-05
-2.18069e-05
-2.16926e-05
-2.15792e-05
-2.14611e-05
-2.13322e-05
-2.11868e-05
-2.10192e-05
-2.08227e-05
-2.05903e-05
-2.03145e-05
-1.99881e-05
-1.96046e-05
-1.91588e-05
-1.86471e-05
-1.80686e-05
-1.74251e-05
-1.67215e-05
-1.59654e-05
-1.51673e-05
-1.43389e-05
-1.34925e-05
-1.26446e-05
-1.1807e-05
-1.09836e-05
-1.0186e-05
-9.42023e-06
-8.69047e-06
-7.99312e-06
-7.38882e-06
-2.20575e-05
-2.1954e-05
-2.18401e-05
-2.17266e-05
-2.1608e-05
-2.14776e-05
-2.13297e-05
-2.1158e-05
-2.09559e-05
-2.07159e-05
-2.04307e-05
-2.00931e-05
-1.96968e-05
-1.92368e-05
-1.87102e-05
-1.81164e-05
-1.7458e-05
-1.67403e-05
-1.59718e-05
-1.51631e-05
-1.43263e-05
-1.3474e-05
-1.26208e-05
-1.17802e-05
-1.09555e-05
-1.01577e-05
-9.39225e-06
-8.66316e-06
-7.96754e-06
-7.35833e-06
-2.2172e-05
-2.20691e-05
-2.19557e-05
-2.18425e-05
-2.17236e-05
-2.15919e-05
-2.14414e-05
-2.12658e-05
-2.1058e-05
-2.08105e-05
-2.0516e-05
-2.01673e-05
-1.97584e-05
-1.92846e-05
-1.87434e-05
-1.8135e-05
-1.74624e-05
-1.67317e-05
-1.59517e-05
-1.51335e-05
-1.42894e-05
-1.34326e-05
-1.25753e-05
-1.17324e-05
-1.09076e-05
-1.01106e-05
-9.34653e-06
-8.61902e-06
-7.926e-06
-7.31271e-06
-2.22531e-05
-2.21511e-05
-2.20385e-05
-2.19258e-05
-2.18066e-05
-2.16738e-05
-2.15209e-05
-2.13414e-05
-2.1128e-05
-2.08732e-05
-2.05694e-05
-2.02098e-05
-1.97885e-05
-1.93013e-05
-1.87461e-05
-1.81238e-05
-1.74379e-05
-1.66951e-05
-1.59048e-05
-1.50782e-05
-1.4228e-05
-1.33676e-05
-1.25082e-05
-1.16638e-05
-1.084e-05
-1.00447e-05
-9.283e-06
-8.55796e-06
-7.86842e-06
-7.25187e-06
-2.22997e-05
-2.21988e-05
-2.20874e-05
-2.19753e-05
-2.18561e-05
-2.17223e-05
-2.15671e-05
-2.13838e-05
-2.11649e-05
-2.09028e-05
-2.059e-05
-2.02198e-05
-1.97865e-05
-1.92863e-05
-1.87178e-05
-1.80823e-05
-1.73841e-05
-1.66303e-05
-1.58307e-05
-1.4997e-05
-1.41421e-05
-1.32788e-05
-1.24191e-05
-1.15745e-05
-1.07525e-05
-9.96005e-06
-9.20161e-06
-8.47996e-06
-7.79476e-06
-7.17577e-06
-2.23108e-05
-2.22114e-05
-2.21013e-05
-2.19901e-05
-2.18711e-05
-2.17364e-05
-2.15791e-05
-2.13921e-05
-2.11679e-05
-2.08987e-05
-2.05771e-05
-2.01965e-05
-1.97516e-05
-1.92391e-05
-1.8658e-05
-1.80102e-05
-1.73007e-05
-1.6537e-05
-1.57295e-05
-1.48901e-05
-1.40318e-05
-1.31664e-05
-1.23074e-05
-1.14643e-05
-1.06452e-05
-9.85652e-06
-9.10233e-06
-8.38503e-06
-7.70503e-06
-7.08442e-06
-2.22856e-05
-2.21878e-05
-2.20794e-05
-2.19693e-05
-2.18507e-05
-2.17153e-05
-2.1556e-05
-2.13655e-05
-2.11361e-05
-2.086e-05
-2.05299e-05
-2.01394e-05
-1.96834e-05
-1.91591e-05
-1.85662e-05
-1.79072e-05
-1.71874e-05
-1.64152e-05
-1.5601e-05
-1.47572e-05
-1.38971e-05
-1.30308e-05
-1.2173e-05
-1.1333e-05
-1.05181e-05
-9.73416e-06
-8.98518e-06
-8.27322e-06
-7.59926e-06
-6.97782e-06
-2.22232e-05
-2.21273e-05
-2.20207e-05
-2.19121e-05
-2.1794e-05
-2.16581e-05
-2.1497e-05
-2.13032e-05
-2.10688e-05
-2.07861e-05
-2.04478e-05
-2.00478e-05
-1.95813e-05
-1.90461e-05
-1.84422e-05
-1.77729e-05
-1.70441e-05
-1.62646e-05
-1.54451e-05
-1.45983e-05
-1.37376e-05
-1.28717e-05
-1.20165e-05
-1.11808e-05
-1.03711e-05
-9.59303e-06
-8.85024e-06
-8.14455e-06
-7.47751e-06
-6.85605e-06
-2.21229e-05
-2.20292e-05
-2.19247e-05
-2.18176e-05
-2.17003e-05
-2.15641e-05
-2.14014e-05
-2.12045e-05
-2.09654e-05
-2.06764e-05
-2.03303e-05
-1.99213e-05
-1.9445e-05
-1.88996e-05
-1.82858e-05
-1.76073e-05
-1.68707e-05
-1.60852e-05
-1.52618e-05
-1.44135e-05
-1.35528e-05
-1.26893e-05
-1.18382e-05
-1.10079e-05
-1.02045e-05
-9.43324e-06
-8.69761e-06
-7.99913e-06
-7.33989e-06
-6.71925e-06
1.21757e-06
1.23618e-06
1.22773e-06
1.19729e-06
1.15102e-06
1.09378e-06
1.02944e-06
9.61047e-07
8.9097e-07
8.20974e-07
7.52363e-07
6.86077e-07
6.22779e-07
5.62915e-07
5.06762e-07
4.54455e-07
4.06025e-07
3.61418e-07
3.20529e-07
2.83219e-07
2.49323e-07
2.18663e-07
1.91045e-07
1.66273e-07
1.44145e-07
1.2446e-07
1.07021e-07
9.16366e-08
7.81212e-08
6.62999e-08
5.60051e-08
4.70818e-08
3.93823e-08
3.27728e-08
2.71251e-08
2.23256e-08
1.82716e-08
1.48648e-08
1.20209e-08
9.65858e-09
7.70593e-09
6.11039e-09
4.80792e-09
3.75839e-09
2.91249e-09
2.24134e-09
1.70852e-09
1.29311e-09
9.68553e-10
7.16838e-10
5.29233e-10
3.69127e-10
2.84176e-10
1.60185e-10
1.68895e-10
3.03801e-11
9.56389e-11
-7.95772e-12
-1.06956e-10
9.00852e-11
1.19921e-06
1.22133e-06
1.21516e-06
1.18667e-06
1.1421e-06
1.0863e-06
1.02318e-06
9.55831e-07
8.86628e-07
8.17368e-07
7.49375e-07
6.83607e-07
6.2074e-07
5.61235e-07
5.05378e-07
4.53317e-07
4.05089e-07
3.6065e-07
3.19899e-07
2.82703e-07
2.48901e-07
2.18317e-07
1.90764e-07
1.66044e-07
1.43958e-07
1.24309e-07
1.06898e-07
9.15371e-08
7.80405e-08
6.62348e-08
5.59527e-08
4.70395e-08
3.93488e-08
3.27459e-08
2.71037e-08
2.2308e-08
1.82585e-08
1.48542e-08
1.20118e-08
9.6524e-09
7.70053e-09
6.10638e-09
4.8055e-09
3.75435e-09
2.91216e-09
2.23879e-09
1.7086e-09
1.29147e-09
9.68202e-10
7.16749e-10
5.27448e-10
3.71472e-10
2.81691e-10
1.63027e-10
1.67278e-10
3.01292e-11
9.56331e-11
-7.92191e-12
-1.04956e-10
9.08996e-11
1.16257e-06
1.19168e-06
1.19006e-06
1.16546e-06
1.12427e-06
1.07136e-06
1.01068e-06
9.454e-07
8.77943e-07
8.10153e-07
7.43396e-07
6.78663e-07
6.1666e-07
5.57872e-07
5.02609e-07
4.51039e-07
4.03217e-07
3.59112e-07
3.18638e-07
2.81669e-07
2.48055e-07
2.17626e-07
1.90199e-07
1.65584e-07
1.43584e-07
1.24005e-07
1.06651e-07
9.13371e-08
7.78787e-08
6.61042e-08
5.58474e-08
4.69548e-08
3.92813e-08
3.26915e-08
2.70607e-08
2.22735e-08
1.8231e-08
1.48331e-08
1.19941e-08
9.63997e-09
7.68974e-09
6.09817e-09
4.79988e-09
3.74801e-09
2.90967e-09
2.23464e-09
1.70779e-09
1.2893e-09
9.67394e-10
7.16113e-10
5.25715e-10
3.73438e-10
2.78669e-10
1.65052e-10
1.65812e-10
3.02231e-11
9.58643e-11
-7.92106e-12
-1.01307e-10
9.14567e-11
1.10785e-06
1.14739e-06
1.15253e-06
1.13372e-06
1.09758e-06
1.04897e-06
9.91955e-07
9.29766e-07
8.64922e-07
7.99335e-07
7.34428e-07
6.71246e-07
6.10536e-07
5.52824e-07
4.98452e-07
4.47619e-07
4.00406e-07
3.56803e-07
3.16744e-07
2.80117e-07
2.46785e-07
2.16587e-07
1.89352e-07
1.64893e-07
1.43022e-07
1.23548e-07
1.06281e-07
9.10368e-08
7.76358e-08
6.59078e-08
5.56893e-08
4.68278e-08
3.91795e-08
3.26097e-08
2.6996e-08
2.22217e-08
1.81898e-08
1.48009e-08
1.19678e-08
9.62067e-09
7.67363e-09
6.08583e-09
4.79099e-09
3.73932e-09
2.90525e-09
2.229e-09
1.70592e-09
1.28621e-09
9.6609e-10
7.14914e-10
5.23827e-10
3.74907e-10
2.75806e-10
1.66749e-10
1.64295e-10
3.05165e-11
9.60173e-11
-8.07769e-12
-9.57801e-11
9.2135e-11
1.03533e-06
1.08865e-06
1.10272e-06
1.09156e-06
1.0621e-06
1.0192e-06
9.67029e-07
9.08949e-07
8.47577e-07
7.84917e-07
7.22473e-07
6.61355e-07
6.02369e-07
5.4609e-07
4.92906e-07
4.43056e-07
3.96654e-07
3.53722e-07
3.14216e-07
2.78045e-07
2.45089e-07
2.15201e-07
1.8822e-07
1.63971e-07
1.42272e-07
1.22938e-07
1.05786e-07
9.06359e-08
7.73115e-08
6.56459e-08
5.54784e-08
4.6658e-08
3.90436e-08
3.25005e-08
2.69094e-08
2.21525e-08
1.81348e-08
1.47577e-08
1.19329e-08
9.59446e-09
7.65223e-09
6.06938e-09
4.77877e-09
3.72832e-09
2.89888e-09
2.22191e-09
1.70299e-09
1.28217e-09
9.64302e-10
7.13142e-10
5.2183e-10
3.75794e-10
2.73191e-10
1.68035e-10
1.62772e-10
3.10084e-11
9.60611e-11
-8.35765e-12
-8.83794e-11
9.28338e-11
9.45388e-07
1.01575e-06
1.04083e-06
1.0391e-06
1.01792e-06
9.82099e-07
9.35944e-07
8.82972e-07
8.25921e-07
7.66908e-07
7.07534e-07
6.48991e-07
5.92156e-07
5.37668e-07
4.85968e-07
4.37346e-07
3.91959e-07
3.49865e-07
3.11051e-07
2.75452e-07
2.42966e-07
2.13466e-07
1.86804e-07
1.62816e-07
1.41332e-07
1.22175e-07
1.05167e-07
9.01341e-08
7.69058e-08
6.53182e-08
5.52143e-08
4.64456e-08
3.88734e-08
3.2364e-08
2.68009e-08
2.20659e-08
1.80659e-08
1.47034e-08
1.18894e-08
9.56132e-09
7.62555e-09
6.04882e-09
4.76323e-09
3.71502e-09
2.89051e-09
2.21337e-09
1.699e-09
1.27719e-09
9.62023e-10
7.10804e-10
5.1974e-10
3.76048e-10
2.70873e-10
1.68861e-10
1.61279e-10
3.16829e-11
9.59695e-11
-8.71508e-12
-7.90815e-11
9.33881e-11
8.38514e-07
9.29003e-07
9.67119e-07
9.76514e-07
9.65152e-07
9.37741e-07
8.98749e-07
8.51866e-07
7.99974e-07
7.45318e-07
6.89615e-07
6.34153e-07
5.79896e-07
5.27553e-07
4.77634e-07
4.30485e-07
3.86317e-07
3.4523e-07
3.07248e-07
2.72335e-07
2.40415e-07
2.1138e-07
1.85101e-07
1.61429e-07
1.40203e-07
1.21257e-07
1.04422e-07
8.95311e-08
7.64183e-08
6.49245e-08
5.48971e-08
4.61903e-08
3.86689e-08
3.22001e-08
2.66705e-08
2.19618e-08
1.79833e-08
1.46381e-08
1.18373e-08
9.52123e-09
7.59362e-09
6.02414e-09
4.74436e-09
3.69942e-09
2.88014e-09
2.20343e-09
1.69393e-09
1.2713e-09
9.59235e-10
7.07919e-10
5.17551e-10
3.75661e-10
2.68867e-10
1.6921e-10
1.59844e-10
3.25156e-11
9.5721e-11
-9.08965e-12
-6.78128e-11
9.35348e-11
7.1527e-07
8.28804e-07
8.81872e-07
9.03985e-07
9.03934e-07
8.8622e-07
8.55503e-07
8.1567e-07
7.69757e-07
7.20159e-07
6.6872e-07
6.16843e-07
5.65585e-07
5.15742e-07
4.67899e-07
4.2247e-07
3.79725e-07
3.39814e-07
3.02803e-07
2.68692e-07
2.37432e-07
2.08943e-07
1.83112e-07
1.59807e-07
1.38883e-07
1.20185e-07
1.03553e-07
8.88266e-08
7.58487e-08
6.44645e-08
5.45265e-08
4.58922e-08
3.84301e-08
3.20087e-08
2.65182e-08
2.18403e-08
1.78869e-08
1.45618e-08
1.17766e-08
9.47419e-09
7.55644e-09
5.99535e-09
4.72217e-09
3.68153e-09
2.86776e-09
2.19212e-09
1.68774e-09
1.26453e-09
9.55907e-10
7.04517e-10
5.15236e-10
3.74656e-10
2.67152e-10
1.69094e-10
1.58482e-10
3.34736e-11
9.52984e-11
-9.40708e-12
-5.46283e-11
9.30826e-11
5.76302e-07
7.15596e-07
7.85432e-07
8.21742e-07
8.34416e-07
8.27638e-07
8.06274e-07
7.74425e-07
7.35296e-07
6.91444e-07
6.44857e-07
5.9706e-07
5.49222e-07
5.02231e-07
4.56759e-07
4.13295e-07
3.72176e-07
3.33611e-07
2.97712e-07
2.64519e-07
2.34017e-07
2.06151e-07