/*--------------------------------*- C++ -*----------------------------------*\
| =========                 |                                                 |
| \\      /  F ield         | foam-extend: Open Source CFD                    |
|  \\    /   O peration     | Version:     4.0                                |
|   \\  /    A nd           | Web:         http://www.foam-extend.org         |
|    \\/     M anipulation  |                                                 |
\*---------------------------------------------------------------------------*/
FoamFile
{
    version     2.0;
    format      ascii;
    class       surfaceScalarField;
    location    "10";
    object      phi;
}
// * * * * * * * * * * * * * * * * * * * * * * * * * * * * * * * * * * * * * //

dimensions      [0 3 -1 0 0 0 0];

internalField   nonuniform List<scalar> 
71520
(
-1.16386e-10
1.16681e-10
-2.94924e-13
-4.13233e-10
2.98141e-10
-1.29419e-12
-8.3773e-10
4.27331e-10
-2.83335e-12
-1.32039e-09
4.87681e-10
-5.01686e-12
-1.77279e-09
4.60349e-10
-7.95861e-12
-2.08522e-09
3.24217e-10
-1.17807e-11
-2.12456e-09
5.59513e-11
-1.66106e-11
-1.73213e-09
-3.6985e-10
-2.2578e-11
-7.21889e-10
-9.80433e-10
-2.98121e-11
1.12091e-09
-1.80437e-09
-3.84333e-11
4.04033e-09
-2.87087e-09
-4.85455e-11
8.30954e-09
-4.20899e-09
-6.02266e-11
1.42295e-08
-5.84641e-09
-7.3517e-11
2.21259e-08
-7.80801e-09
-8.84054e-11
3.23447e-08
-1.0114e-08
-1.04813e-10
4.52453e-08
-1.2778e-08
-1.22579e-10
6.11913e-08
-1.58046e-08
-1.41442e-10
8.05393e-08
-1.9187e-08
-1.61031e-10
1.03625e-07
-2.2905e-08
-1.8085e-10
1.30749e-07
-2.69231e-08
-2.00282e-10
1.62157e-07
-3.11895e-08
-2.18594e-10
1.98028e-07
-3.5636e-08
-2.34958e-10
2.38456e-07
-4.01803e-08
-2.48489e-10
2.83444e-07
-4.47293e-08
-2.58293e-10
3.3289e-07
-4.91826e-08
-2.63542e-10
3.86597e-07
-5.34435e-08
-2.63567e-10
4.44287e-07
-5.74316e-08
-2.5794e-10
5.05622e-07
-6.10884e-08
-2.46539e-10
5.70235e-07
-6.43835e-08
-2.29607e-10
-6.73418e-08
6.37784e-07
-2.07705e-10
-1.14831e-10
2.31512e-10
-4.07065e-10
5.90375e-10
-8.23779e-10
8.44045e-10
-1.2954e-09
9.593e-10
-1.73343e-09
8.98377e-10
-2.02816e-09
6.18954e-10
-2.04647e-09
7.42621e-11
-1.62973e-09
-7.86594e-10
-5.92017e-10
-2.01815e-09
1.2812e-09
-3.67758e-09
4.23371e-09
-5.82338e-09
8.53836e-09
-8.51363e-09
1.44956e-08
-1.18036e-08
2.24306e-08
-1.5743e-08
3.26886e-08
-2.0372e-08
4.5628e-08
-2.57174e-08
6.16115e-08
-3.1788e-08
8.09945e-08
-3.85699e-08
1.04111e-07
-4.60219e-08
1.3126e-07
-5.40721e-08
1.62687e-07
-6.2616e-08
1.98567e-07
-7.15166e-08
2.38995e-07
-8.06083e-08
2.8397e-07
-8.9704e-08
3.3339e-07
-9.86024e-08
3.87058e-07
-1.07111e-07
4.44695e-07
-1.15069e-07
5.05966e-07
-1.2236e-07
5.70505e-07
-1.28923e-07
-1.34808e-07
6.37972e-07
-1.1173e-10
3.43242e-10
-3.94766e-10
8.73411e-10
-7.95956e-10
1.24523e-09
-1.24554e-09
1.40889e-09
-1.65492e-09
1.30775e-09
-1.91433e-09
8.78367e-10
-1.89066e-09
5.05947e-11
-1.42542e-09
-1.25183e-09
-3.32929e-10
-3.11064e-09
1.60097e-09
-5.61148e-09
4.61952e-09
-8.84193e-09
8.99484e-09
-1.2889e-08
1.50265e-08
-1.78353e-08
2.30384e-08
-2.3755e-08
3.33745e-08
-3.07081e-08
4.63913e-08
-3.87343e-08
6.24494e-08
-4.78462e-08
8.19018e-08
-5.80223e-08
1.0508e-07
-6.92002e-08
1.3228e-07
-8.12715e-08
1.63742e-07
-9.40787e-08
1.99642e-07
-1.07416e-07
2.40068e-07
-1.21034e-07
2.85016e-07
-1.34652e-07
3.34383e-07
-1.47969e-07
3.87971e-07
-1.607e-07
4.45505e-07
-1.72602e-07
5.06648e-07
-1.83503e-07
5.71039e-07
-1.93314e-07
-2.02108e-07
6.3834e-07
-1.07112e-10
4.50353e-10
-3.76445e-10
1.14274e-09
-7.54503e-10
1.62329e-09
-1.17126e-09
1.82565e-09
-1.53793e-09
1.67442e-09
-1.74467e-09
1.08511e-09
-1.65844e-09
-3.56408e-11
-1.12088e-09
-1.78939e-09
5.32938e-11
-4.28482e-09
2.07766e-09
-7.63585e-09
5.19468e-09
-1.19589e-08
9.67539e-09
-1.73697e-08
1.58179e-08
-2.39778e-08
2.39446e-08
-3.18816e-08
3.43969e-08
-4.11604e-08
4.7529e-08
-5.18663e-08
6.36982e-08
-6.40154e-08
8.32539e-08
-7.7578e-08
1.06524e-07
-9.24699e-08
1.33798e-07
-1.08546e-07
1.65314e-07
-1.25595e-07
2.0124e-07
-1.43342e-07
2.41661e-07
-1.61456e-07
2.86568e-07
-1.79559e-07
3.35855e-07
-1.97255e-07
3.89324e-07
-2.1417e-07
4.46701e-07
-2.29979e-07
5.07654e-07
-2.44456e-07
5.71823e-07
-2.57483e-07
-2.69161e-07
6.38875e-07
-1.01018e-10
5.51371e-10
-3.52264e-10
1.39399e-09
-6.99784e-10
1.97081e-09
-1.07319e-09
2.19906e-09
-1.38345e-09
1.98468e-09
-1.52061e-09
1.22227e-09
-1.35167e-09
-2.04582e-10
-7.18546e-10
-2.42251e-09
5.63592e-10
-5.56696e-09
2.70755e-09
-9.77981e-09
5.95473e-09
-1.52061e-08
1.05747e-08
-2.19897e-08
1.68639e-08
-3.0267e-08
2.51421e-08
-4.01598e-08
3.5748e-08
-5.17663e-08
4.90321e-08
-6.51505e-08
6.53478e-08
-8.03311e-08
8.50394e-08
-9.72696e-08
1.08429e-07
-1.1586e-07
1.35801e-07
-1.35918e-07
1.67386e-07
-1.5718e-07
2.03346e-07
-1.79302e-07
2.43758e-07
-2.01868e-07
2.88607e-07
-2.24408e-07
3.37785e-07
-2.46434e-07
3.91095e-07
-2.6748e-07
4.48263e-07
-2.87147e-07
5.08961e-07
-3.05153e-07
5.72835e-07
-3.21357e-07
-3.35884e-07
6.39558e-07
-9.35027e-11
6.44874e-10
-3.22436e-10
1.62292e-09
-6.32266e-10
2.28064e-09
-9.52158e-10
2.51895e-09
-1.19275e-09
2.22527e-09
-1.24395e-09
1.27347e-09
-9.72821e-10
-4.75712e-10
-2.2159e-10
-3.17374e-09
1.19397e-09
-6.98252e-09
3.48575e-09
-1.20716e-08
6.89382e-09
-1.86142e-08
1.1686e-08
-2.67819e-08
1.81563e-08
-3.67373e-08
2.66217e-08
-4.86252e-08
3.74172e-08
-6.25618e-08
5.0889e-08
-7.86223e-08
6.73852e-08
-9.68272e-08
8.7244e-08
-1.17128e-07
1.10781e-07
-1.39396e-07
1.38272e-07
-1.63409e-07
1.69941e-07
-1.88849e-07
2.05939e-07
-2.153e-07
2.46334e-07
-2.42263e-07
2.91108e-07
-2.69182e-07
3.40149e-07
-2.95474e-07
3.93258e-07
-3.20589e-07
4.50163e-07
-3.44052e-07
5.10541e-07
-3.65531e-07
5.74047e-07
-3.84862e-07
-4.02197e-07
6.40359e-07
-8.4632e-11
7.29506e-10
-2.87213e-10
1.8255e-09
-5.52515e-10
2.54594e-09
-8.09148e-10
2.77558e-09
-9.67361e-10
2.38348e-09
-9.16897e-10
1.22301e-09
-5.24873e-10
-8.67736e-10
3.6612e-10
-4.06473e-09
1.93959e-09
-8.55599e-09
4.40634e-09
-1.45383e-08
8.00485e-09
-2.22127e-08
1.30008e-08
-3.17779e-08
1.96855e-08
-4.34219e-08
2.83723e-08
-5.7312e-08
3.93919e-08
-7.35814e-08
5.30853e-08
-9.23157e-08
6.97942e-08
-1.13536e-07
8.98499e-08
-1.37184e-07
1.13559e-07
-1.63106e-07
1.4119e-07
-1.9104e-07
1.72953e-07
-2.20611e-07
2.08989e-07
-2.51336e-07
2.49361e-07
-2.82635e-07
2.94041e-07
-3.13862e-07
3.42914e-07
-3.44347e-07
3.95779e-07
-3.73455e-07
4.52367e-07
-4.0064e-07
5.1236e-07
-4.25524e-07
5.75422e-07
-4.47924e-07
-4.68018e-07
6.41244e-07
-7.44807e-11
8.03987e-10
-2.46888e-10
1.99791e-09
-4.61181e-10
2.76024e-09
-6.45315e-10
2.95971e-09
-7.09085e-10
2.44725e-09
-5.42013e-10
1.05593e-09
-1.12849e-11
-1.39846e-09
1.04009e-09
-5.11611e-09
2.79482e-09
-1.03107e-08
5.46242e-09
-1.72059e-08
9.27955e-09
-2.60298e-08
1.45094e-08
-3.70078e-08
2.14401e-08
-5.03525e-08
3.03807e-08
-6.62526e-08
4.16572e-08
-8.48579e-08
5.56041e-08
-1.06263e-07
7.25562e-08
-1.30488e-07
9.28362e-08
-1.57464e-07
1.16741e-07
-1.87011e-07
1.44526e-07
-2.18825e-07
1.76391e-07
-2.52477e-07
2.12467e-07
-2.87413e-07
2.52806e-07
-3.22974e-07
2.97372e-07
-3.58428e-07
3.46044e-07
-3.93019e-07
3.98621e-07
-4.26031e-07
4.54833e-07
-4.56853e-07
5.14374e-07
-4.85065e-07
5.76918e-07
-5.10468e-07
-5.33267e-07
6.42166e-07
-6.31329e-11
8.6712e-10
-2.01787e-10
2.13657e-09
-3.58991e-10
2.91744e-09
-4.6194e-10
3.06266e-09
-4.19911e-10
2.40522e-09
-1.22149e-10
7.58172e-10
5.64078e-10
-2.08469e-09
1.79529e-09
-6.34732e-09
3.75332e-09
-1.22687e-08
6.64623e-09
-2.00988e-08
1.07086e-08
-3.00922e-08
1.62008e-08
-4.25e-08
2.34072e-08
-5.75589e-08
3.26323e-08
-7.54778e-08
4.41962e-08
-9.64217e-08
5.84265e-08
-1.20493e-07
7.56496e-08
-1.47711e-07
9.61785e-08
-1.77993e-07
1.20298e-07
-2.1113e-07
1.48251e-07
-2.46778e-07
1.80226e-07
-2.84451e-07
2.1634e-07
-3.23527e-07
2.56634e-07
-3.63268e-07
3.01063e-07
-4.02857e-07
3.49498e-07
-4.41455e-07
4.01738e-07
-4.7827e-07
4.57517e-07
-5.12632e-07
5.16536e-07
-5.44084e-07
5.78484e-07
-5.72416e-07
-5.97858e-07
6.43076e-07
-5.06785e-11
9.17798e-10
-1.52262e-10
2.23815e-09
-2.46727e-10
3.01191e-09
-2.60421e-10
3.07636e-09
-1.02008e-10
2.24681e-09
3.39569e-10
3.16595e-10
1.19696e-09
-2.94208e-09
2.62622e-09
-7.77658e-09
4.80817e-09
-1.44507e-08
7.94926e-09
-2.32399e-08
1.22818e-08
-3.44247e-08
1.80629e-08
-4.82811e-08
2.55727e-08
-6.50687e-08
3.51107e-08
-8.50158e-08
4.69901e-08
-1.08301e-07
6.15311e-08
-1.35034e-07
7.90505e-08
-1.65231e-07
9.98496e-08
-1.98792e-07
1.242e-07
-2.35481e-07
1.52333e-07
-2.7491e-07
1.84421e-07
-3.16539e-07
2.20569e-07
-3.59675e-07
2.60803e-07
-4.03502e-07
3.05068e-07
-4.47122e-07
3.5323e-07
-4.89617e-07
4.05083e-07
-5.30123e-07
4.60367e-07
-5.67917e-07
5.18794e-07
-6.02511e-07
5.80067e-07
-6.33688e-07
-6.61706e-07
6.43915e-07
-3.72137e-11
9.55012e-10
-9.86872e-11
2.29962e-09
-1.25238e-10
3.03846e-09
-4.22505e-11
2.99337e-09
2.42296e-10
1.96226e-09
8.39776e-10
-2.80885e-10
1.88283e-09
-3.98513e-09
3.52697e-09
-9.42073e-09
5.95193e-09
-1.68756e-08
9.36238e-09
-2.66504e-08
1.3988e-08
-3.90503e-08
2.00825e-08
-5.43756e-08
2.79213e-08
-7.29075e-08
3.77981e-08
-9.48926e-08
5.0019e-08
-1.20522e-07
6.4895e-08
-1.4991e-07
8.27328e-08
-1.83069e-07
1.0382e-07
-2.1988e-07
1.28417e-07
-2.60077e-07
1.56737e-07
-3.03231e-07
1.8894e-07
-3.48742e-07
2.25114e-07
-3.95849e-07
2.65271e-07
-4.43659e-07
3.09344e-07
-4.91195e-07
3.57191e-07
-5.37464e-07
4.08605e-07
-5.81537e-07
4.63333e-07
-6.22644e-07
5.21094e-07
-6.60272e-07
5.81609e-07
-6.94203e-07
-7.24723e-07
6.44626e-07
-2.2839e-11
9.77851e-10
-4.14667e-11
2.31825e-09
4.60297e-12
2.99239e-09
1.91022e-10
2.80695e-09
6.10559e-10
1.54273e-09
1.375e-09
-1.04533e-09
2.61695e-09
-5.22708e-09
4.49136e-09
-1.12951e-08
7.17677e-09
-1.95611e-08
1.08759e-08
-3.03495e-08
1.58157e-08
-4.39901e-08
2.22459e-08
-6.08057e-08
3.04369e-08
-8.10986e-08
4.06759e-08
-1.05132e-07
5.32611e-08
-1.33107e-07
6.8494e-08
-1.65143e-07
8.6669e-08
-2.01244e-07
1.08061e-07
-2.41272e-07
1.32914e-07
-2.8493e-07
1.61428e-07
-3.31745e-07
1.93743e-07
-3.81057e-07
2.29932e-07
-4.32037e-07
2.69991e-07
-4.83718e-07
3.13841e-07
-5.35045e-07
3.61331e-07
-5.84954e-07
4.12254e-07
-6.3246e-07
4.66361e-07
-6.76751e-07
5.23383e-07
-7.17294e-07
5.83059e-07
-7.53879e-07
-7.86819e-07
6.45155e-07
-7.65987e-12
9.85511e-10
1.90084e-11
2.29158e-09
1.41892e-10
2.86951e-09
4.37779e-10
2.51106e-09
1.00028e-09
9.80225e-10
1.94163e-09
-1.98667e-09
3.3944e-09
-6.67985e-09
5.51296e-09
-1.34137e-08
8.47458e-09
-2.25227e-08
1.24799e-08
-3.43549e-08
1.77527e-08
-4.92629e-08
2.45386e-08
-6.75916e-08
3.31026e-08
-8.96625e-08
4.37246e-08
-1.15754e-07
5.66943e-08
-1.46077e-07
7.23026e-08
-1.80751e-07
9.08307e-08
-2.19772e-07
1.1254e-07
-2.62981e-07
1.37658e-07
-3.10048e-07
1.66366e-07
-3.60453e-07
1.98788e-07
-4.13479e-07
2.34978e-07
-4.68227e-07
2.74916e-07
-5.23656e-07
3.1851e-07
-5.78639e-07
3.65601e-07
-6.32045e-07
4.15979e-07
-6.82839e-07
4.69401e-07
-7.30173e-07
5.25612e-07
-7.73505e-07
5.84368e-07
-8.12635e-07
-8.47907e-07
6.45456e-07
8.22921e-12
9.77282e-10
8.23529e-11
2.21746e-09
2.8573e-10
2.66613e-09
6.96413e-10
2.10038e-09
1.40893e-09
2.67705e-10
2.536e-09
-3.11373e-09
4.21018e-09
-8.35404e-09
6.58524e-09
-1.57888e-08
9.83706e-09
-2.57745e-08
1.4164e-08
-3.86818e-08
1.97867e-08
-5.48855e-08
2.6946e-08
-7.4751e-08
3.59009e-08
-9.86175e-08
4.69241e-08
-1.26777e-07
6.02954e-08
-1.59448e-07
7.62944e-08
-1.9675e-07
9.51887e-08
-2.38666e-07
1.17224e-07
-2.85016e-07
1.42611e-07
-3.35435e-07
1.71512e-07
-3.89355e-07
2.04032e-07
-4.45999e-07
2.40207e-07
-5.04401e-07
2.79999e-07
-5.63448e-07
3.23302e-07
-6.21942e-07
3.6995e-07
-6.78693e-07
4.19731e-07
-7.3262e-07
4.72407e-07
-7.82849e-07
5.27737e-07
-8.28834e-07
5.85497e-07
-8.70395e-07
-9.07907e-07
6.45497e-07
2.47184e-11
9.52563e-10
1.48126e-10
2.09405e-09
4.35204e-10
2.37905e-09
9.65321e-10
1.57026e-09
1.83396e-09
-6.00936e-10
3.15443e-09
-4.4342e-09
5.05928e-09
-1.02589e-08
7.7016e-09
-1.84311e-08
1.12558e-08
-2.93287e-08
1.5918e-08
-4.3344e-08
2.19049e-08
-6.08724e-08
2.94529e-08
-8.22989e-08
3.88144e-08
-1.07979e-07
5.02537e-08
-1.38216e-07
6.40408e-08
-1.73235e-07
8.04429e-08
-2.13152e-07
9.97127e-08
-2.57936e-07
1.2208e-07
-3.07383e-07
1.47736e-07
-3.61092e-07
1.76826e-07
-4.18444e-07
2.09432e-07
-4.78605e-07
2.45572e-07
-5.40541e-07
2.8519e-07
-6.03066e-07
3.28167e-07
-6.64919e-07
3.74329e-07
-7.24855e-07
4.23463e-07
-7.81753e-07
4.75336e-07
-8.34723e-07
5.29722e-07
-8.83219e-07
5.86418e-07
-9.27091e-07
-9.66746e-07
6.45256e-07
4.17124e-11
9.10851e-10
2.15962e-10
1.9198e-09
5.89424e-10
2.00559e-09
1.24289e-09
9.16802e-10
2.27289e-09
-1.63094e-09
3.7933e-09
-5.95461e-09
5.93669e-09
-1.24023e-08
8.85548e-09
-2.13499e-08
1.27225e-08
-3.31958e-08
1.77313e-08
-4.83527e-08
2.40948e-08
-6.7236e-08
3.20442e-08
-9.02483e-08
4.1825e-08
-1.1776e-07
5.36928e-08
-1.50084e-07
6.79068e-08
-1.87449e-07
8.47208e-08
-2.29966e-07
1.04372e-07
-2.77587e-07
1.27073e-07
-3.30084e-07
1.52997e-07
-3.87015e-07
1.82266e-07
-4.47714e-07
2.14944e-07
-5.11283e-07
2.51026e-07
-5.76623e-07
2.90442e-07
-6.42482e-07
3.33057e-07
-7.07535e-07
3.78691e-07
-7.70488e-07
4.27129e-07
-8.30192e-07
4.78149e-07
-8.85743e-07
5.31533e-07
-9.36604e-07
5.87106e-07
-9.82664e-07
-1.02436e-06
6.44723e-07
5.91145e-11
8.51736e-10
2.85473e-10
1.69344e-09
7.47526e-10
1.54353e-09
1.52759e-09
1.36742e-10
2.72325e-09
-2.8266e-09
4.44904e-09
-7.6804e-09
6.83753e-09
-1.47908e-08
1.00404e-08
-2.45527e-08
1.42289e-08
-3.73843e-08
1.95937e-08
-5.37175e-08
2.63439e-08
-7.39862e-08
3.47049e-08
-9.86093e-08
4.4915e-08
-1.2797e-07
5.72206e-08
-1.6239e-07
7.18694e-08
-2.02098e-07
8.91008e-08
-2.47198e-07
1.09137e-07
-2.97623e-07
1.3217e-07
-3.53117e-07
1.58355e-07
-4.132e-07
1.87792e-07
-4.77151e-07
2.20523e-07
-5.44014e-07
2.56524e-07
-6.12624e-07
2.95706e-07
-6.81664e-07
3.37923e-07
-7.49752e-07
3.82987e-07
-8.15552e-07
4.30686e-07
-8.77891e-07
4.80806e-07
-9.35862e-07
5.33144e-07
-9.88943e-07
5.87543e-07
-1.03706e-06
-1.08071e-06
6.43889e-07
7.68375e-11
7.74899e-10
3.56306e-10
1.41397e-09
9.08714e-10
9.91127e-10
1.81788e-09
-7.72429e-10
3.18267e-09
-4.19139e-09
5.11818e-09
-9.6159e-09
7.75701e-09
-1.74296e-08
1.125e-08
-2.80458e-08
1.57668e-08
-4.1901e-08
2.14951e-08
-5.94457e-08
2.86396e-08
-8.11307e-08
3.742e-08
-1.0739e-07
4.80667e-08
-1.38617e-07
6.08164e-08
-1.75139e-07
7.59046e-08
-2.17186e-07
9.35557e-08
-2.64849e-07
1.13975e-07
-3.18042e-07
1.37336e-07
-3.76479e-07
1.63772e-07
-4.39635e-07
1.93361e-07
-5.0674e-07
2.26124e-07
-5.76777e-07
2.62017e-07
-6.48517e-07
3.00934e-07
-7.20581e-07
3.42716e-07
-7.91535e-07
3.87171e-07
-8.60007e-07
4.3409e-07
-9.2481e-07
4.83269e-07
-9.85042e-07
5.34524e-07
-1.0402e-06
5.87712e-07
-1.09025e-06
-1.13575e-06
6.42749e-07
9.47862e-11
6.80113e-10
4.28092e-10
1.08067e-09
1.07215e-09
3.47065e-10
2.11242e-09
-1.81269e-09
3.6489e-09
-5.72787e-09
5.79741e-09
-1.17644e-08
8.69052e-09
-2.03227e-08
1.24783e-08
-3.18336e-08
1.73284e-08
-4.67511e-08
2.34255e-08
-6.55428e-08
3.09699e-08
-8.86751e-08
4.01748e-08
-1.16595e-07
5.12628e-08
-1.49705e-07
6.44598e-08
-1.88336e-07
7.99886e-08
-2.32715e-07
9.80583e-08
-2.82918e-07
1.18856e-07
-3.3884e-07
1.42536e-07
-4.00159e-07
1.69209e-07
-4.66308e-07
1.98933e-07
-5.36464e-07
2.31704e-07
-6.09549e-07
2.67459e-07
-6.84272e-07
3.06076e-07
-7.59198e-07
3.47386e-07
-8.32845e-07
3.91193e-07
-9.03814e-07
4.37293e-07
-9.7091e-07
4.85497e-07
-1.03325e-06
5.35636e-07
-1.09034e-06
5.87587e-07
-1.1422e-06
-1.18945e-06
6.41292e-07
1.12889e-10
5.67224e-10
5.00523e-10
6.93035e-10
1.23712e-09
-3.89536e-10
2.4098e-09
-2.98537e-09
4.11978e-09
-7.43786e-09
6.48354e-09
-1.41282e-08
9.63364e-09
-2.34728e-08
1.37192e-08
-3.59192e-08
1.8906e-08
-5.19379e-08
2.53754e-08
-7.20122e-08
3.33229e-08
-9.66226e-08
4.29552e-08
-1.26227e-07
5.4486e-08
-1.61236e-07
6.81306e-08
-2.01981e-07
8.40983e-08
-2.48683e-07
1.02582e-07
-3.01402e-07
1.2375e-07
-3.60008e-07
1.47737e-07
-4.24146e-07
1.7463e-07
-4.93202e-07
2.04465e-07
-5.66299e-07
2.37218e-07
-6.42301e-07
2.72803e-07
-7.19857e-07
3.11085e-07
-7.97479e-07
3.51884e-07
-8.73645e-07
3.95004e-07
-9.46934e-07
4.40249e-07
-1.01615e-06
4.87444e-07
-1.08044e-06
5.3644e-07
-1.13933e-06
5.87136e-07
-1.1929e-06
-1.24181e-06
6.39497e-07
1.31069e-10
4.36155e-10
5.73299e-10
2.50804e-10
1.40293e-09
-1.21917e-09
2.70876e-09
-4.2912e-09
4.59327e-09
-9.32236e-09
7.17357e-09
-1.67085e-08
1.05822e-08
-2.68814e-08
1.49673e-08
-4.03042e-08
2.04924e-08
-5.7463e-08
2.73355e-08
-7.88554e-08
3.56871e-08
-1.04974e-07
4.5747e-08
-1.36287e-07
5.77198e-08
-1.73208e-07
7.18093e-08
-2.1607e-07
8.82106e-08
-2.65084e-07
1.071e-07
-3.20291e-07
1.28627e-07
-3.81535e-07
1.52904e-07
-4.48423e-07
1.79997e-07
-5.20295e-07
2.09919e-07
-5.9622e-07
2.42621e-07
-6.75003e-07
2.78003e-07
-7.55239e-07
3.15911e-07
-8.35387e-07
3.56161e-07
-9.13895e-07
3.98555e-07
-9.89328e-07
4.42908e-07
-1.06051e-06
4.89063e-07
-1.12659e-06
5.36892e-07
-1.18716e-06
5.86318e-07
-1.24232e-06
-1.29282e-06
6.37328e-07
1.49258e-10
2.86897e-10
6.46138e-10
-2.46076e-10
1.56893e-09
-2.14196e-09
3.00813e-09
-5.7304e-09
5.06745e-09
-1.13817e-08
7.86466e-09
-1.95057e-08
1.15321e-08
-3.05489e-08
1.6217e-08
-4.49891e-08
2.20805e-08
-6.33265e-08
2.9297e-08
-8.60719e-08
3.80516e-08
-1.13729e-07
4.85368e-08
-1.46772e-07
6.09479e-08
-1.85619e-07
7.54766e-08
-2.30599e-07
9.23031e-08
-2.81911e-07
1.11586e-07
-3.39574e-07
1.33457e-07
-4.03406e-07
1.58005e-07
-4.72971e-07
1.85274e-07
-5.47564e-07
2.15252e-07
-6.26198e-07
2.47872e-07
-7.07623e-07
2.83012e-07
-7.90379e-07
3.20507e-07
-8.72883e-07
3.60167e-07
-9.53555e-07
4.01796e-07
-1.03096e-06
4.4522e-07
-1.10393e-06
4.90302e-07
-1.17168e-06
5.36939e-07
-1.2338e-06
5.85083e-07
-1.29047e-06
-1.34248e-06
6.3474e-07
1.67395e-10
1.19502e-10
7.18793e-10
-7.97473e-10
1.73454e-09
-3.15771e-09
3.30681e-09
-7.30268e-09
5.54056e-09
-1.36154e-08
8.55414e-09
-2.25193e-08
1.24797e-08
-3.44745e-08
1.74633e-08
-4.99726e-08
2.36636e-08
-6.95269e-08
3.12512e-08
-9.36595e-08
4.04056e-08
-1.22883e-07
5.13116e-08
-1.57678e-07
6.41545e-08
-1.98462e-07
7.91138e-08
-2.45558e-07
9.63538e-08
-2.9915e-07
1.16016e-07
-3.59237e-07
1.38211e-07
-4.256e-07
1.63007e-07
-4.97767e-07
1.90423e-07
-5.74981e-07
2.20426e-07
-6.56201e-07
2.52926e-07
-7.40123e-07
2.87786e-07
-8.25238e-07
3.24827e-07
-9.09925e-07
3.63854e-07
-9.92582e-07
4.04677e-07
-1.07178e-06
4.47134e-07
-1.14639e-06
4.91109e-07
-1.21565e-06
5.36527e-07
-1.27922e-06
5.83375e-07
-1.33732e-06
-1.39077e-06
6.31671e-07
1.85422e-10
-6.59203e-11
7.91024e-10
-1.40308e-09
1.89919e-09
-4.26587e-09
3.60378e-09
-9.00727e-09
6.01092e-09
-1.60226e-08
9.23951e-09
-2.57479e-08
1.34214e-08
-3.86564e-08
1.87013e-08
-5.52524e-08
2.52354e-08
-7.6061e-08
3.31901e-08
-1.01614e-07
4.27389e-08
-1.32432e-07
5.40587e-08
-1.68998e-07
6.73244e-08
-2.11728e-07
8.27026e-08
-2.60937e-07
1.00341e-07
-3.16789e-07
1.20364e-07
-3.7926e-07
1.42861e-07
-4.48097e-07
1.67877e-07
-5.22783e-07
1.9541e-07
-6.02513e-07
2.25402e-07
-6.86193e-07
2.57744e-07
-7.72465e-07
2.9228e-07
-8.59774e-07
3.28824e-07
-9.46468e-07
3.67176e-07
-1.03093e-06
4.0715e-07
-1.11175e-06
4.486e-07
-1.18784e-06
4.91431e-07
-1.25848e-06
5.35598e-07
-1.32338e-06
5.8113e-07
-1.38285e-06
-1.43769e-06
6.2805e-07
2.0329e-10
-2.6921e-10
8.62619e-10
-2.06241e-09
2.06238e-09
-5.46563e-09
3.89808e-09
-1.0843e-08
6.47697e-09
-1.86014e-08
9.91842e-09
-2.91893e-08
1.43539e-08
-4.30919e-08
1.99265e-08
-6.08251e-08
2.67899e-08
-8.29243e-08
3.51059e-08
-1.0993e-07
4.50418e-08
-1.42368e-07
5.67661e-08
-1.80722e-07
7.04429e-08
-2.25405e-07
8.62253e-08
-2.76719e-07
1.04245e-07
-3.34809e-07
1.24607e-07
-3.99622e-07
1.4738e-07
-4.7087e-07
1.72586e-07
-5.4799e-07
2.00201e-07
-6.30128e-07
2.30143e-07
-7.16136e-07
2.62285e-07
-8.04607e-07
2.96454e-07
-8.93944e-07
3.32455e-07
-9.82469e-07
3.70087e-07
-1.06857e-06
4.09171e-07
-1.15084e-06
4.49573e-07
-1.22824e-06
4.91222e-07
-1.30013e-06
5.34099e-07
-1.36626e-06
5.78287e-07
-1.42704e-06
-1.48321e-06
6.23798e-07
2.20954e-10
-4.90164e-10
9.33384e-10
-2.77483e-09
2.22365e-09
-6.7559e-09
4.18885e-09
-1.28082e-08
6.93728e-09
-2.13499e-08
1.05887e-08
-3.28407e-08
1.52739e-08
-4.77772e-08
2.11346e-08
-6.66857e-08
2.83212e-08
-9.01109e-08
3.69909e-08
-1.186e-07
4.73046e-08
-1.52682e-07
5.9422e-08
-1.92839e-07
7.34958e-08
-2.39479e-07
8.96649e-08
-2.92888e-07
1.08045e-07
-3.53189e-07
1.28721e-07
-4.20298e-07
1.5174e-07
-4.93889e-07
1.77104e-07
-5.73354e-07
2.04762e-07
-6.57786e-07
2.34614e-07
-7.45987e-07
2.6651e-07
-8.36503e-07
3.00267e-07
-9.27701e-07
3.3568e-07
-1.01788e-06
3.72549e-07
-1.10543e-06
4.107e-07
-1.18899e-06
4.50015e-07
-1.26755e-06
4.90441e-07
-1.34056e-06
5.31982e-07
-1.4078e-06
5.74787e-07
-1.46984e-06
-1.52724e-06
6.18825e-07
2.38371e-10
-7.28535e-10
1.00314e-09
-3.5396e-09
2.38257e-09
-8.13534e-09
4.47527e-09
-1.49009e-08
7.39048e-09
-2.42651e-08
1.12482e-08
-3.66984e-08
1.61786e-08
-5.27076e-08
2.23213e-08
-7.28285e-08
2.98238e-08
-9.76133e-08
3.88382e-08
-1.27614e-07
4.95184e-08
-1.63362e-07
6.2015e-08
-2.05336e-07
7.64692e-08
-2.53933e-07
9.30049e-08
-3.09424e-07
1.1172e-07
-3.71904e-07
1.32682e-07
-4.4126e-07
1.55916e-07
-5.17123e-07
1.814e-07
-5.98838e-07
2.09061e-07
-6.85448e-07
2.38778e-07
-7.75704e-07
2.70384e-07
-8.68109e-07
3.03682e-07
-9.60999e-07
3.38461e-07
-1.05266e-06
3.74522e-07
-1.1415e-06
4.11701e-07
-1.22617e-06
4.49892e-07
-1.30575e-06
4.89056e-07
-1.37972e-06
5.29207e-07
-1.44795e-06
5.70567e-07
-1.5112e-06
-1.56969e-06
6.13016e-07
2.55502e-10
-9.84037e-10
1.07171e-09
-4.35581e-09
2.53874e-09
-9.60236e-09
4.75657e-09
-1.71187e-08
7.83529e-09
-2.73438e-08
1.1895e-08
-4.0758e-08
1.70649e-08
-5.78776e-08
2.34828e-08
-7.92464e-08
3.12924e-08
-1.05423e-07
4.06407e-08
-1.36963e-07
5.16744e-08
-1.74395e-07
6.45343e-08
-2.18196e-07
7.93498e-08
-2.68748e-07
9.62291e-08
-3.26303e-07
1.15254e-07
-3.90929e-07
1.3647e-07
-4.62476e-07
1.59883e-07
-5.40535e-07
1.85447e-07
-6.24402e-07
2.13068e-07
-7.13069e-07
2.42604e-07
-8.0524e-07
2.73871e-07
-8.99377e-07
3.06662e-07
-9.93789e-07
3.40762e-07
-1.08676e-06
3.75975e-07
-1.17671e-06
4.12147e-07
-1.26234e-06
4.49184e-07
-1.34278e-06
4.8705e-07
-1.41759e-06
5.2575e-07
-1.48665e-06
5.65536e-07
-1.55099e-06
-1.61036e-06
6.062e-07
2.72312e-10
-1.25635e-09
1.13896e-09
-5.22246e-09
2.69177e-09
-1.11552e-08
5.03203e-09
-1.9459e-08
8.27051e-09
-3.05823e-08
1.25272e-08
-4.50147e-08
1.79304e-08
-6.32808e-08
2.46153e-08
-8.59314e-08
3.2722e-08
-1.1353e-07
4.2392e-08
-1.46633e-07
5.37641e-08
-1.85768e-07
6.69694e-08
-2.31401e-07
8.21245e-08
-2.83903e-07
9.93221e-08
-3.43501e-07
1.18626e-07
-4.10233e-07
1.40064e-07
-4.83914e-07
1.63617e-07
-5.64088e-07
1.89219e-07
-6.50004e-07
2.16754e-07
-7.40604e-07
2.4606e-07
-8.34546e-07
2.7694e-07
-9.30256e-07
3.09176e-07
-1.02603e-06
3.42553e-07
-1.12014e-06
3.7688e-07
-1.21104e-06
4.12017e-07
-1.29748e-06
4.47889e-07
-1.37865e-06
4.84458e-07
-1.45416e-06
5.21679e-07
-1.52387e-06
5.59602e-07
-1.58891e-06
-1.64879e-06
5.98031e-07
2.88766e-10
-1.54512e-09
1.20472e-09
-6.13842e-09
2.84131e-09
-1.27918e-08
5.30096e-09
-2.19186e-08
8.69498e-09
-3.39763e-08
1.31431e-08
-4.94628e-08
1.87722e-08
-6.891e-08
2.57151e-08
-9.28743e-08
3.41077e-08
-1.21922e-07
4.40856e-08
-1.5661e-07
5.57795e-08
-1.97462e-07
6.93101e-08
-2.44932e-07
8.4781e-08
-2.99374e-07
1.02269e-07
-3.60989e-07
1.21821e-07
-4.29785e-07
1.43442e-07
-5.05536e-07
1.67095e-07
-5.87741e-07
1.9269e-07
-6.75599e-07
2.2009e-07
-7.68004e-07
2.49117e-07
-8.63572e-07
2.79559e-07
-9.60698e-07
3.11191e-07
-1.05766e-06
3.43801e-07
-1.15275e-06
3.77206e-07
-1.24444e-06
4.1129e-07
-1.33156e-06
4.4601e-07
-1.41337e-06
4.81356e-07
-1.4895e-06
5.1726e-07
-1.55978e-06
5.53262e-07
-1.62491e-06
-1.68334e-06
5.87817e-07
3.04842e-10
-1.84996e-09
1.26889e-09
-7.10247e-09
2.98706e-09
-1.45099e-08
5.56277e-09
-2.44943e-08
9.10768e-09
-3.75212e-08
1.3741e-08
-5.4096e-08
1.95881e-08
-7.47571e-08
2.6779e-08
-1.00065e-07
3.5445e-08
-1.30588e-07
4.57155e-08
-1.66881e-07
5.7713e-08
-2.09459e-07
7.15471e-08
-2.58766e-07
8.73077e-08
-3.15135e-07
1.05056e-07
-3.78737e-07
1.24821e-07
-4.49549e-07
1.46587e-07
-5.27302e-07
1.70296e-07
-6.11449e-07
1.95836e-07
-7.01139e-07
2.23053e-07
-7.95221e-07
2.51748e-07
-8.92268e-07
2.817e-07
-9.9065e-07
3.1268e-07
-1.08864e-06
3.44476e-07
-1.18454e-06
3.76919e-07
-1.27689e-06
4.09922e-07
-1.36456e-06
4.4349e-07
-1.44694e-06
4.77689e-07
-1.5237e-06
5.12724e-07
-1.59481e-06
5.48857e-07
-1.66104e-06
-1.72356e-06
5.89072e-07
3.20494e-10
-2.17045e-09
1.33129e-09
-8.11327e-09
3.12862e-09
-1.63073e-08
5.81672e-09
-2.71824e-08
9.50737e-09
-4.12119e-08
1.43191e-08
-5.89077e-08
2.03754e-08
-8.08135e-08
2.78032e-08
-1.07493e-07
3.6729e-08
-1.39514e-07
4.72755e-08
-1.77427e-07
5.95563e-08
-2.2174e-07
7.36702e-08
-2.7288e-07
8.96924e-08
-3.31157e-07
1.07669e-07
-3.96714e-07
1.27609e-07
-4.69489e-07
1.49479e-07
-5.49172e-07
1.73198e-07
-6.35168e-07
1.98635e-07
-7.26577e-07
2.25615e-07
-8.222e-07
2.53926e-07
-9.20579e-07
2.83335e-07
-1.02006e-06
3.1361e-07
-1.11891e-06
3.44543e-07
-1.21548e-06
3.7598e-07
-1.30832e-06
4.07852e-07
-1.39643e-06
4.40191e-07
-1.47928e-06
4.73089e-07
-1.5566e-06
5.068e-07
-1.62852e-06
5.41669e-07
-1.69591e-06
-1.76032e-06
5.78427e-07
3.35701e-10
-2.50615e-09
1.39181e-09
-9.16938e-09
3.26571e-09
-1.81812e-08
6.06223e-09
-2.99789e-08
9.8931e-09
-4.50427e-08
1.48758e-08
-6.38904e-08
2.11319e-08
-8.70696e-08
2.87846e-08
-1.15146e-07
3.79554e-08
-1.48685e-07
4.87599e-08
-1.88232e-07
6.13025e-08
-2.34283e-07
7.56705e-08
-2.87248e-07
9.19244e-08
-3.47411e-07
1.10094e-07
-4.14884e-07
1.30171e-07
-4.89566e-07
1.52101e-07
-5.71102e-07
1.75783e-07
-6.58849e-07
2.01065e-07
-7.51859e-07
2.27756e-07
-8.48891e-07
2.55629e-07
-9.48451e-07
2.84442e-07
-1.04887e-06
3.13963e-07
-1.14843e-06
3.43986e-07
-1.2455e-06
3.74371e-07
-1.33871e-06
4.05066e-07
-1.42713e-06
4.36116e-07
-1.51033e-06
4.67612e-07
-1.5881e-06
4.99776e-07
-1.66069e-06
5.32862e-07
-1.729e-06
-1.79465e-06
5.67195e-07
3.50431e-10
-2.85658e-09
1.45032e-09
-1.02693e-08
3.39799e-09
-2.01288e-08
6.2987e-09
-3.28796e-08
1.02638e-08
-4.90079e-08
1.54096e-08
-6.90362e-08
2.18552e-08
-9.35152e-08
2.972e-08
-1.2301e-07
3.91199e-08
-1.58085e-07
5.01632e-08
-1.99275e-07
6.29447e-08
-2.47064e-07
7.75394e-08
-3.01842e-07
9.39934e-08
-3.63865e-07
1.1232e-07
-4.33211e-07
1.32493e-07
-5.09739e-07
1.54438e-07
-5.93047e-07
1.78033e-07
-6.82444e-07
2.03109e-07
-7.76935e-07
2.29457e-07
-8.75239e-07
2.56838e-07
-9.75832e-07
2.85005e-07
-1.07704e-06
3.13721e-07
-1.17715e-06
3.4279e-07
-1.27457e-06
3.72084e-07
-1.368e-06
4.01567e-07
-1.45661e-06
4.31295e-07
-1.54006e-06
4.61356e-07
-1.61816e-06
4.91952e-07
-1.69128e-06
5.23317e-07
-1.76036e-06
-1.82702e-06
5.55687e-07
3.64654e-10
-3.22124e-09
1.50668e-09
-1.14113e-08
3.52517e-09
-2.21473e-08
6.52553e-09
-3.588e-08
1.06186e-08
-5.31009e-08
1.5919e-08
-7.43366e-08
2.25432e-08
-1.00139e-07
3.06063e-08
-1.31073e-07
4.02185e-08
-1.67697e-07
5.14801e-08
-2.10537e-07
6.44762e-08
-2.6006e-07
7.92686e-08
-3.16635e-07
9.58896e-08
-3.80486e-07
1.14336e-07
-4.51657e-07
1.34562e-07
-5.29965e-07
1.56475e-07
-6.1496e-07
1.79934e-07
-7.05903e-07
2.04751e-07
-8.01753e-07
2.30702e-07
-9.0119e-07
2.57538e-07
-1.00267e-06
2.85006e-07
-1.10451e-06
3.12872e-07
-1.20502e-06
3.40947e-07
-1.30264e-06
3.69119e-07
-1.39617e-06
3.97367e-07
-1.48486e-06
4.25755e-07
-1.56845e-06
4.5438e-07
-1.64678e-06
4.83446e-07
-1.72035e-06
5.13201e-07
-1.79012e-06
-1.85769e-06
5.43874e-07
3.78341e-10
-3.59958e-09
1.56077e-09
-1.25937e-08
3.64692e-09
-2.42335e-08
6.74212e-09
-3.89752e-08
1.09563e-08
-5.73151e-08
1.64024e-08
-7.97827e-08
2.31935e-08
-1.06931e-07
3.14405e-08
-1.3932e-07
4.12471e-08
-1.77504e-07
5.27055e-08
-2.21995e-07
6.58904e-08
-2.73245e-07
8.08505e-08
-3.31595e-07
9.76037e-08
-3.97239e-07
1.1613e-07
-4.70183e-07
1.36366e-07
-5.502e-07
1.58199e-07
-6.36794e-07
1.8147e-07
-7.29174e-07
2.05976e-07
-8.26258e-07
2.31477e-07
-9.26691e-07
2.57716e-07
-1.02891e-06
2.84437e-07
-1.13123e-06
3.11409e-07
-1.23199e-06
3.38455e-07
-1.32969e-06
3.65476e-07
-1.42319e-06
3.92474e-07
-1.51186e-06
4.19514e-07
-1.59549e-06
4.46715e-07
-1.67398e-06
4.74295e-07
-1.74793e-06
5.02522e-07
-1.81835e-06
-1.88681e-06
5.31645e-07
3.91461e-10
-3.99104e-09
1.61246e-09
-1.38147e-08
3.76292e-09
-2.63839e-08
6.94788e-09
-4.21602e-08
1.12761e-08
-6.16434e-08
1.68582e-08
-8.53648e-08
2.38042e-08
-1.13876e-07
3.22197e-08
-1.47736e-07
4.22019e-08
-1.87486e-07
5.38345e-08
-2.33628e-07
6.71812e-08
-2.86592e-07
8.22776e-08
-3.46691e-07
9.91271e-08
-4.14089e-07
1.17693e-07
-4.88749e-07
1.37894e-07
-5.70401e-07
1.59599e-07
-6.58499e-07
1.82631e-07
-7.52207e-07
2.06772e-07
-8.50398e-07
2.3177e-07
-9.51689e-07
2.57362e-07
-1.0545e-06
2.83289e-07
-1.15716e-06
3.09327e-07
-1.25803e-06
3.35311e-07
-1.35567e-06
3.61158e-07
-1.44904e-06
3.86894e-07
-1.53759e-06
4.12587e-07
-1.62118e-06
4.38378e-07
-1.69977e-06
4.64507e-07
-1.77406e-06
4.91259e-07
-1.8451e-06
-1.91446e-06
5.18909e-07
4.03981e-10
-4.39502e-09
1.66161e-09
-1.50723e-08
3.87287e-09
-2.85952e-08
7.1422e-09
-4.54295e-08
1.15769e-08
-6.60781e-08
1.72852e-08
-9.1073e-08
2.4373e-08
-1.20964e-07
3.2941e-08
-1.56304e-07
4.30792e-08
-1.97624e-07
5.48624e-08
-2.45411e-07
6.83427e-08
-3.00072e-07
8.35431e-08
-3.61892e-07
1.00452e-07
-4.30997e-07
1.19016e-07
-5.07313e-07
1.39136e-07
-5.90521e-07
1.60664e-07
-6.80027e-07
1.83406e-07
-7.74949e-07
2.07129e-07
-8.74122e-07
2.31573e-07
-9.76133e-07
2.56469e-07
-1.07939e-06
2.81558e-07
-1.18225e-06
3.06625e-07
-1.28309e-06
3.31517e-07
-1.38057e-06
3.56171e-07
-1.47369e-06
3.80636e-07
-1.56206e-06
4.04983e-07
-1.64553e-06
4.29379e-07
-1.72417e-06
4.54083e-07
-1.79876e-06
4.79395e-07
-1.87041e-06
-1.94068e-06
5.05609e-07
4.1587e-10
-4.81089e-09
1.70808e-09
-1.63646e-08
3.97644e-09
-3.08636e-08
7.3245e-09
-4.87775e-08
1.18578e-08
-7.06114e-08
1.76816e-08
-9.68969e-08
2.4898e-08
-1.28181e-07
3.36016e-08
-1.65007e-07
4.38753e-08
-2.07898e-07
5.57846e-08
-2.5732e-07
6.93696e-08
-3.13657e-07
8.46406e-08
-3.77163e-07
1.01571e-07
-4.47928e-07
1.20091e-07
-5.25833e-07
1.40084e-07
-6.10513e-07
1.61385e-07
-7.01328e-07
1.83786e-07
-7.9735e-07
2.07041e-07
-8.97377e-07
2.30881e-07
-9.99973e-07
2.55032e-07
-1.10355e-06
2.79242e-07
-1.20646e-06
3.03303e-07