/*--------------------------------*- C++ -*----------------------------------*\
| =========                 |                                                 |
| \\      /  F ield         | foam-extend: Open Source CFD                    |
|  \\    /   O peration     | Version:     4.0                                |
|   \\  /    A nd           | Web:         http://www.foam-extend.org         |
|    \\/     M anipulation  |                                                 |
\*---------------------------------------------------------------------------*/
FoamFile
{
    version     2.0;
    format      ascii;
    class       volVectorField;
    location    "10";
    object      U;
}
// * * * * * * * * * * * * * * * * * * * * * * * * * * * * * * * * * * * * * //

dimensions      [0 1 -1 0 0 0 0];

internalField   nonuniform List<vector> 
36000
(
(-2.26771e-07 8.78296e-07 -1.02187e-25)
(-1.81034e-06 2.11162e-06 1.05508e-25)
(-4.53697e-06 2.84449e-06 0)
(-7.91995e-06 3.04598e-06 0)
(-1.1323e-05 2.68931e-06 -9.08233e-26)
(-1.4026e-05 1.75207e-06 -8.52247e-26)
(-1.52118e-05 2.17788e-07 0)
(-1.39558e-05 -1.92279e-06 0)
(-9.2272e-06 -4.6707e-06 0)
(1.0059e-07 -8.01641e-06 0)
(1.52349e-05 -1.19383e-05 0)
(3.74436e-05 -1.64013e-05 -9.70832e-26)
(6.8028e-05 -2.13553e-05 2.00544e-27)
(0.000108289 -2.67335e-05 -7.73445e-26)
(0.000159482 -3.2451e-05 6.28172e-26)
(0.000222773 -3.84042e-05 -5.84276e-26)
(0.000299173 -4.44709e-05 9.15612e-26)
(0.000389483 -5.05113e-05 -3.2826e-26)
(0.000494223 -5.63706e-05 3.04217e-26)
(0.000613575 -6.18831e-05 5.60204e-26)
(0.000747318 -6.68782e-05 -5.54628e-27)
(0.000894786 -7.11889e-05 2.13819e-26)
(0.00105484 -7.46612e-05 -3.61722e-27)
(0.00122589 -7.71651e-05 9.45428e-27)
(0.00140591 -7.86016e-05 1.50574e-26)
(0.00159245 -7.89202e-05 0)
(0.00178287 -7.81326e-05 0)
(0.00197443 -7.63082e-05 0)
(0.00216424 -7.3571e-05 -2.31114e-26)
(0.00235072 -7.01079e-05 4.35944e-26)
(-3.15667e-07 2.61265e-06 0)
(-2.0056e-06 6.26197e-06 0)
(-4.76351e-06 8.40193e-06 0)
(-8.0995e-06 8.93932e-06 3.86396e-25)
(-1.13751e-05 7.79351e-06 -9.04302e-26)
(-1.38683e-05 4.89722e-06 8.52239e-26)
(-1.47612e-05 2.00757e-07 0)
(-1.31286e-05 -6.32385e-06 0)
(-7.9412e-06 -1.46784e-05 -2.68976e-25)
(1.92505e-06 -2.48339e-05 2.52298e-25)
(1.76732e-05 -3.67243e-05 -2.20441e-25)
(4.05649e-05 -5.02432e-05 2.06142e-25)
(7.18936e-05 -6.52381e-05 8.86421e-26)
(0.000112949 -8.1506e-05 8.52256e-26)
(0.000164976 -9.87893e-05 1.39487e-25)
(0.000229123 -0.000116774 0)
(0.000306384 -0.000135089 -2.63492e-25)
(0.000397539 -0.000153311 2.52359e-26)
(0.000503088 -0.000170971 2.24222e-25)
(0.000623186 -0.000187568 -1.31824e-25)
(0.000757589 -0.000202586 -5.43954e-26)
(0.000905609 -0.00021552 2.10338e-26)
(0.00106608 -0.000225905 -1.64289e-26)
(0.00123741 -0.000233351 -1.63914e-26)
(0.00141753 -0.00023756 5.21554e-27)
(0.00160401 -0.000238385 -6.39022e-26)
(0.00179421 -0.000235866 1.09636e-25)
(0.00198541 -0.000230215 0)
(0.00217471 -0.000221811 0)
(0.00236064 -0.000211219 0)
(-4.90802e-07 4.30696e-06 4.21338e-25)
(-2.38873e-06 1.03041e-05 1.97531e-27)
(-5.20493e-06 1.37934e-05 -6.26117e-25)
(-8.44315e-06 1.46198e-05 7.87961e-25)
(-1.14604e-05 1.26492e-05 -9.29834e-25)
(-1.35314e-05 7.76968e-06 -6.95055e-25)
(-1.38358e-05 -1.0154e-07 1.30219e-24)
(-1.14482e-05 -1.10109e-05 -6.0882e-25)
(-5.34181e-06 -2.49609e-05 0)
(5.60221e-06 -4.19027e-05 0)
(2.25783e-05 -6.17265e-05 0)
(4.6836e-05 -8.42547e-05 0)
(7.96525e-05 -0.000109233 3.54177e-25)
(0.000122297 -0.000136322 -7.95464e-25)
(0.000175988 -0.000165093 5.66777e-25)
(0.000241844 -0.000195022 0)
(0.000320823 -0.000225491 1.78458e-25)
(0.000413665 -0.000255794 -1.6557e-25)
(0.000520824 -0.00028515 0)
(0.000642409 -0.000312724 0)
(0.000778127 -0.000337658 2.66828e-25)
(0.000927242 -0.000359112 -1.1454e-25)
(0.00108855 -0.000376315 0)
(0.00126041 -0.000388614 -1.12024e-26)
(0.00144073 -0.000395521 2.54034e-26)
(0.00162708 -0.000396802 4.20164e-26)
(0.00181683 -0.000392522 -9.19954e-26)
(0.0020073 -0.000383037 -8.18105e-26)
(0.00219557 -0.000368983 0)
(0.00238044 -0.000351288 -2.47977e-25)
(-7.47132e-07 5.93508e-06 0)
(-2.94613e-06 1.41675e-05 0)
(-5.84044e-06 1.89108e-05 2.10986e-25)
(-8.92427e-06 1.99486e-05 -8.10652e-25)
(-1.15481e-05 1.70942e-05 1.53046e-24)
(-1.29811e-05 1.01914e-05 -1.08698e-24)
(-1.23998e-05 -8.75136e-07 0)
(-8.8787e-06 -1.61701e-05 0)
(-1.39423e-06 -3.56967e-05 -8.57343e-25)
(1.11643e-05 -5.93861e-05 1.04566e-24)
(2.99786e-05 -8.70849e-05 -4.82484e-25)
(5.62801e-05 -0.000118545 -4.34822e-25)
(9.13215e-05 -0.00015341 7.33907e-25)
(0.000136341 -0.000191207 -6.84341e-25)
(0.000192519 -0.000231336 -2.80308e-25)
(0.000260926 -0.000273065 0)
(0.00034247 -0.000315531 -7.91205e-25)
(0.000437827 -0.000357747 1.31522e-26)
(0.000547386 -0.000398625 4.90365e-25)
(0.000671186 -0.000436997 -1.39839e-26)
(0.000808858 -0.00047167 -1.46226e-26)
(0.000959597 -0.000501473 -4.10255e-26)
(0.00112214 -0.000525334 -5.23822e-26)
(0.00129479 -0.000542342 8.48321e-27)
(0.00147539 -0.000551827 0)
(0.00166154 -0.000553481 1.14952e-26)
(0.00185061 -0.000547393 -2.59544e-25)
(0.00203997 -0.000534062 1.30302e-25)
(0.0022267 -0.000514386 4.47077e-25)
(0.00240997 -0.000489628 4.67574e-25)
(-1.07721e-06 7.47183e-06 6.71102e-25)
(-3.65771e-06 1.77841e-05 -1.38722e-24)
(-6.6393e-06 2.36495e-05 8.86965e-25)
(-9.50354e-06 2.47918e-05 8.40766e-25)
(-1.15921e-05 2.09722e-05 -7.95477e-25)
(-1.21671e-05 1.1991e-05 3.65978e-25)
(-1.04005e-05 -2.29919e-06 -1.02592e-24)
(-5.36663e-06 -2.19807e-05 2.57836e-24)
(3.95331e-06 -4.70573e-05 -3.01022e-25)
(1.86595e-05 -7.74401e-05 5.56729e-25)
(3.99166e-05 -0.000112933 -5.0559e-25)
(6.8932e-05 -0.000153216 4.34767e-25)
(0.000106926 -0.000197836 0)
(0.000155095 -0.000246183 0)
(0.000214568 -0.000297489 1.19698e-24)
(0.000286356 -0.000350816 -5.36633e-25)
(0.000371293 -0.00040506 4.14701e-25)
(0.000469977 -0.000458957 3.3593e-25)
(0.000582707 -0.000511113 -5.50772e-25)
(0.000709427 -0.000560038 -5.98842e-25)
(0.000849674 -0.000604203 1.69355e-25)
(0.00100255 -0.000642118 3.54872e-25)
(0.0011667 -0.000672414 -1.357e-25)
(0.00134034 -0.000693927 3.0574e-26)
(0.0015213 -0.00070583 -2.20765e-26)
(0.00170717 -0.000707743 6.8631e-26)
(0.00189531 -0.000699783 1.28693e-25)
(0.00208319 -0.000682592 2.61085e-26)
(0.00226789 -0.000657332 -1.63328e-25)
(0.00244902 -0.000625573 -3.04823e-25)
(-1.47127e-06 8.89326e-06 2.11151e-24)
(-4.49712e-06 2.10892e-05 -4.76839e-25)
(-7.5612e-06 2.79104e-05 0)
(-1.01293e-05 2.90222e-05 -4.50954e-25)
(-1.15323e-05 2.41347e-05 -2.07905e-24)
(-1.10231e-05 1.30057e-05 2.35989e-24)
(-7.76829e-06 -4.54343e-06 1.08787e-24)
(-8.41967e-07 -2.86121e-05 -6.66642e-25)
(1.07688e-05 -5.92045e-05 6.21279e-25)
(2.81509e-05 -9.62115e-05 -2.8324e-24)
(5.24482e-05 -0.000139394 1.55681e-24)
(8.48376e-05 -0.000188364 -4.32693e-25)
(0.000126499 -0.000242567 1.66172e-24)
(0.000178577 -0.000301262 -7.55168e-25)
(0.000242137 -0.000363516 -1.89393e-24)
(0.000318114 -0.000428186 1.09255e-24)
(0.000407252 -0.000493929 -9.18735e-25)
(0.00051005 -0.00055921 7.42755e-27)
(0.000626697 -0.000622336 -3.48065e-25)
(0.000757018 -0.000681497 -1.97411e-25)
(0.00090043 -0.000734843 6.79844e-25)
(0.00105592 -0.000780567 -4.79845e-25)
(0.00122202 -0.000817007 0)
(0.00139686 -0.000842776 -8.98694e-26)
(0.00157823 -0.0008569 -3.39024e-26)
(0.0017637 -0.000858929 4.11996e-26)
(0.00195068 -0.000849017 -1.53386e-25)
(0.0021367 -0.000827949 0)
(0.00231883 -0.000797159 -6.35762e-25)
(0.00249731 -0.000758477 1.2362e-25)
(-1.91741e-06 1.0177e-05 0)
(-5.43222e-06 2.40223e-05 0)
(-8.55688e-06 3.16008e-05 0)
(-1.07385e-05 3.2521e-05 -2.40856e-26)
(-1.12948e-05 2.64431e-05 3.05841e-24)
(-9.46794e-06 1.30838e-05 -2.43893e-24)
(-4.418e-06 -7.76591e-06 1.51712e-24)
(4.78123e-06 -3.62218e-05 -2.84798e-24)
(1.91354e-05 -7.22876e-05 -6.72984e-25)
(3.9716e-05 -0.000115835 -1.18345e-24)
(6.76416e-05 -0.000166581 1.10817e-24)
(0.000104053 -0.000224071 4.86206e-25)
(0.000150081 -0.000287651 8.9909e-27)
(0.00020681 -0.000356452 0)
(0.000275227 -0.000429374 -4.72868e-26)
(0.000356176 -0.000505077 5.13848e-25)
(0.000450297 -0.000581982 -5.25258e-25)
(0.000557967 -0.000658291 3.95264e-25)
(0.000679244 -0.000732013 1.34161e-24)
(0.000813813 -0.000801031 -8.21512e-26)
(0.000960951 -0.000863179 -5.16519e-25)
(0.00111949 -0.000916338 -2.52916e-25)
(0.00128784 -0.000958582 1.4271e-26)
(0.00146405 -0.000988316 -1.62195e-25)
(0.00164587 -0.00100442 -9.77605e-26)
(0.00183083 -0.0010064 -4.63937e-26)
(0.00201636 -0.000994439 1.11352e-25)
(0.00220013 -0.000969478 2.04098e-25)
(0.0023792 -0.000933226 4.63087e-25)
(0.0025545 -0.000887723 -2.11494e-25)
(-2.40179e-06 1.13026e-05 -2.09473e-24)
(-6.42552e-06 2.65281e-05 0)
(-9.5689e-06 3.46358e-05 -2.06017e-24)
(-1.12575e-05 3.51793e-05 2.42807e-24)
(-1.07936e-05 2.77705e-05 -2.72988e-24)
(-7.40686e-06 1.20866e-05 3.45091e-24)
(-2.50006e-07 -1.21106e-05 -3.22249e-24)
(1.16035e-05 -4.49525e-05 7.5094e-25)
(2.91509e-05 -8.64416e-05 1.35553e-24)
(5.34457e-05 -0.00013643 -5.59492e-26)
(8.55772e-05 -0.000194593 -2.36889e-24)
(0.000126644 -0.000260408 2.05493e-24)
(0.000177721 -0.000333125 -1.96551e-24)
(0.000239819 -0.000411747 -3.33393e-24)
(0.000313838 -0.000495013 2.21786e-24)
(0.000400515 -0.000581388 6.11078e-25)
(0.000500366 -0.000669064 -1.6523e-24)
(0.000613632 -0.000755982 -9.5338e-25)
(0.000740216 -0.000839867 -7.05775e-25)
(0.00087964 -0.000918299 1.73512e-24)
(0.001031 -0.000988799 -5.71123e-25)
(0.00119298 -0.00104897 -1.27081e-26)
(0.00136387 -0.00109663 -5.86341e-25)
(0.0015416 -0.00112999 5.74089e-25)
(0.00172385 -0.0011478 9.77164e-26)
(0.00190814 -0.00114953 1.24538e-26)
(0.00209196 -0.00113542 7.04863e-26)
(0.00227307 -0.00110655 -9.06608e-26)
(0.00244856 -0.00106493 -3.73782e-25)
(0.00262017 -0.00101273 5.08805e-25)
(-2.90877e-06 1.22517e-05 2.22571e-24)
(-7.43478e-06 2.85569e-05 -2.89127e-24)
(-1.05324e-05 3.69392e-05 -2.18388e-24)
(-1.16029e-05 3.68996e-05 2.07032e-24)
(-9.93108e-06 2.80036e-05 1.94352e-24)
(-4.73252e-06 9.89034e-06 -8.92175e-25)
(4.84847e-06 -1.77058e-05 0)
(1.97385e-05 -5.49302e-05 0)
(4.09256e-05 -0.000101784 7.12833e-25)
(6.94427e-05 -0.0001581 1.30949e-24)
(0.000106345 -0.000223513 3.62281e-24)
(0.000152685 -0.000297431 -2.27002e-24)
(0.000209471 -0.000379011 -6.8951e-26)
(0.000277632 -0.00046713 1.74467e-24)
(0.000357968 -0.000560371 -9.14796e-25)
(0.000451095 -0.000657008 -1.42345e-24)
(0.000557389 -0.00075501 3.50063e-24)
(0.000676934 -0.000852064 8.51869e-25)
(0.000809455 -0.000945618 -3.24953e-27)
(0.000954281 -0.00103295 -9.33131e-27)
(0.00111033 -0.00111131 -8.32781e-26)
(0.00127613 -0.00117801 3.58004e-25)
(0.00144978 -0.00123065 8.31016e-25)
(0.00162913 -0.00126726 1.09128e-25)
(0.00181177 -0.00128647 1.73688e-25)
(0.00199521 -0.00128774 -3.65941e-25)
(0.002177 -0.00127136 6.54631e-26)
(0.00235504 -0.00123858 6.44465e-26)
(0.00252644 -0.00119168 -8.4644e-26)
(0.00269383 -0.00113293 -3.38282e-25)
(-3.42123e-06 1.30081e-05 -1.75704e-24)
(-8.41353e-06 3.00652e-05 3.03872e-24)
(-1.13761e-05 3.84444e-05 -1.19966e-24)
(-1.16831e-05 3.75966e-05 3.3286e-24)
(-8.59998e-06 2.70435e-05 -2.0758e-24)
(-1.32668e-06 6.38789e-06 -9.43324e-25)
(1.10017e-05 -2.46612e-05 -3.61116e-24)
(2.9312e-05 -6.62624e-05 3.39768e-24)
(5.45816e-05 -0.000118415 -1.61373e-24)
(8.78204e-05 -0.000180932 0)
(0.000130047 -0.000253405 -2.59319e-24)
(0.000182257 -0.000335178 2.42441e-24)
(0.000245389 -0.000425316 -1.0705e-24)
(0.00032028 -0.000522573 1.96819e-24)
(0.000407615 -0.000625378 8.2098e-25)
(0.000507876 -0.000731819 0)
(0.000621284 -0.00083965 1.15115e-25)
(0.000747743 -0.000946315 0)
(0.000886775 -0.00104898 9.83746e-26)
(0.00103751 -0.00114466 1.51163e-24)
(0.00119868 -0.00123032 1.20366e-24)
(0.00136858 -0.00130303 3.39617e-25)
(0.0015452 -0.00136017 -2.05964e-24)
(0.00172621 -0.0013996 1.3385e-25)
(0.00190916 -0.00141989 0)
(0.00209155 -0.00142045 3.9031e-25)
(0.00227097 -0.00140169 5.3568e-28)
(0.00244552 -0.00136499 1.20681e-25)
(0.00261231 -0.00131295 0)
(0.00277496 -0.00124783 1.43939e-25)
(-3.92075e-06 1.35582e-05 6.93361e-25)
(-9.3118e-06 3.10164e-05 1.34727e-24)
(-1.20232e-05 3.90953e-05 2.47811e-24)
(-1.13995e-05 3.71991e-05 -7.01467e-24)
(-6.68459e-06 2.48076e-05 3.2811e-24)
(2.9382e-06 1.49011e-06 -3.05238e-24)
(1.83439e-05 -3.30679e-05 7.72967e-24)
(4.04596e-05 -7.90368e-05 -3.61816e-24)
(7.02508e-05 -0.000136413 3.33469e-24)
(0.000108701 -0.000204989 0)
(0.000156788 -0.000284315 0)
(0.000215447 -0.000373671 3.84347e-24)
(0.000285537 -0.00047203 -8.14434e-26)
(0.000367793 -0.000578029 -2.11599e-24)
(0.000462774 -0.000689946 1.22807e-25)
(0.000570813 -0.000805692 -2.25544e-26)
(0.000691958 -0.000922811 -2.71173e-24)
(0.000825911 -0.0010385 1.26189e-24)
(0.000971984 -0.00114968 -9.72876e-25)
(0.00112909 -0.0012531 7.9862e-25)
(0.00129572 -0.00134546 -2.77876e-24)
(0.00147 -0.00142361 -2.19108e-24)
(0.0016497 -0.00148472 1.08678e-24)
(0.00183239 -0.00152653 1.3987e-24)
(0.00201552 -0.00154752 -5.01174e-25)
(0.00219661 -0.00154714 -2.41569e-25)
(0.00237331 -0.00152588 0)
(0.00254394 -0.00148527 -7.9065e-26)
(0.0027056 -0.00142822 0)
(0.00286299 -0.00135693 -2.03851e-25)
(-4.38789e-06 1.38911e-05 -1.30485e-24)
(-1.00768e-05 3.13807e-05 4.21238e-24)
(-1.23923e-05 3.88468e-05 -5.19644e-24)
(-1.06472e-05 3.56494e-05 -7.98545e-26)
(-4.06225e-06 2.12301e-05 2.35232e-24)
(8.19753e-06 -4.87309e-06 -5.46018e-24)
(2.70178e-05 -4.29961e-05 4.13922e-24)
(5.33256e-05 -9.33193e-05 0)
(8.80731e-05 -0.000155835 1.80405e-24)
(0.000132216 -0.000230314 -5.00006e-24)
(0.000186684 -0.000316266 0)
(0.000252349 -0.000412909 -5.44641e-24)
(0.000329981 -0.000519125 2.52236e-24)
(0.000420202 -0.000633437 -2.32009e-24)
(0.000523437 -0.000753979 -1.79012e-24)
(0.000639851 -0.000878486 3.5006e-24)
(0.000769308 -0.0010043 0)
(0.000911285 -0.00112839 1.39543e-24)
(0.00106487 -0.00124744 2.1662e-24)
(0.00122873 -0.00135794 -4.01629e-24)
(0.00140114 -0.00145637 1.47168e-24)
(0.00157998 -0.00153935 -1.35278e-24)
(0.00176284 -0.00160388 -9.11291e-25)
(0.00194716 -0.00164758 -8.38001e-25)
(0.0021303 -0.0016689 -1.31503e-25)
(0.00230982 -0.00166731 0)
(0.00248344 -0.00164342 -6.16786e-25)
(0.00264969 -0.00159891 0)
(0.00280571 -0.00153703 0)
(0.00295733 -0.00145979 -8.55391e-27)
(-4.80247e-06 1.39983e-05 1.48736e-24)
(-1.06538e-05 3.11359e-05 -1.534e-24)
(-1.23992e-05 3.76648e-05 -6.98421e-24)
(-9.31746e-06 3.29053e-05 6.61723e-24)
(-6.04961e-07 1.62631e-05 -6.20825e-24)
(1.45927e-05 -1.27519e-05 7.14459e-24)
(3.71724e-05 -5.44946e-05 -4.37211e-24)
(6.80605e-05 -0.000109153 8.17917e-24)
(0.000108195 -0.000176715 -3.8187e-24)
(0.000158499 -0.000256928 1.69437e-24)
(0.000219853 -0.000349262 1.51629e-24)
(0.000293057 -0.000452872 -3.07444e-24)
(0.000378785 -0.000566554 0)
(0.000477539 -0.00068872 2.45584e-24)
(0.000589591 -0.000817362 1.24826e-25)
(0.000714934 -0.000950053 3.8508e-24)
(0.00085322 -0.00108394 -3.48053e-24)
(0.00100369 -0.00121576 1.41924e-24)
(0.0011652 -0.00134199 -2.37807e-24)
(0.00133616 -0.00145888 4.23223e-24)
(0.00151457 -0.00156269 0)
(0.0016981 -0.00164986 0)
(0.00188415 -0.00171722 2.14428e-24)
(0.00206999 -0.00176231 6.71635e-25)
(0.00225295 -0.00178356 -1.38074e-24)
(0.00243059 -0.0017805 -5.56344e-25)
(0.00260074 -0.00175386 6.16528e-25)
(0.00276216 -0.00170548 5.65317e-25)
(0.00291204 -0.00163893 3.7551e-25)
(0.0030574 -0.00155599 -2.08418e-25)
(-5.14378e-06 1.38744e-05 -7.63118e-24)
(-1.09864e-05 3.0267e-05 1.534e-24)
(-1.19568e-05 3.55273e-05 0)
(-7.29796e-06 2.89395e-05 0)
(3.81914e-06 9.87673e-06 -5.32431e-24)
(2.22694e-05 -2.21761e-05 2.59958e-24)
(4.89612e-05 -6.75899e-05 0)
(8.48197e-05 -0.000126559 0)
(0.000130766 -0.000199062 -1.92762e-24)
(0.00018769 -0.000284826 5.70174e-24)
(0.000256417 -0.00038328 -1.15087e-25)
(0.000337669 -0.000493516 1.67003e-24)
(0.000432017 -0.000614249 -6.49287e-26)
(0.00053983 -0.00074378 -5.03926e-24)
(0.000661221 -0.000879968 4.78005e-24)
(0.000795994 -0.00102023 1.62876e-25)
(0.000943571 -0.00116151 1.75184e-24)
(0.00110296 -0.00130037 6.41608e-24)
(0.00127274 -0.00143305 -8.37072e-24)
(0.00145105 -0.00155561 0)
(0.00163564 -0.00166409 0)
(0.00182393 -0.00175477 3.26337e-24)
(0.00201311 -0.00182435 -1.4162e-24)
(0.00220034 -0.00187032 1.13134e-24)
(0.00238286 -0.0018911 -7.49555e-25)
(0.00255829 -0.0018863 3.74282e-24)
(0.00272458 -0.00185679 -1.07935e-25)
(0.00288073 -0.00180456 -9.40519e-25)
(0.00302397 -0.00173354 1.56224e-25)
(0.00316264 -0.00164515 4.43771e-25)
(-5.39083e-06 1.35164e-05 -4.85637e-24)
(-1.1017e-05 2.87667e-05 6.76146e-24)
(-1.09764e-05 3.24239e-05 0)
(-4.4747e-06 2.374e-05 -6.02945e-24)
(9.34411e-06 2.05925e-06 2.76796e-24)
(3.13758e-05 -3.31547e-05 0)
(6.25404e-05 -8.2286e-05 2.57675e-24)
(0.000103761 -0.000145532 -2.40128e-24)
(0.00015594 -0.000222863 -2.09131e-24)
(0.00021993 -0.000313981 -1.93274e-24)
(0.000296498 -0.000418275 1.77824e-24)
(0.000386281 -0.000534778 -6.73884e-24)
(0.000489739 -0.000662122 6.14159e-24)
(0.000607101 -0.000798502 2.88092e-24)
(0.000738306 -0.000941654 -5.00799e-24)
(0.000882955 -0.00108884 1.70969e-25)
(0.00104023 -0.00123682 -3.85564e-24)
(0.00120888 -0.00138198 -3.12243e-24)
(0.00138721 -0.00152036 3.09512e-24)
(0.00157308 -0.00164782 2.6916e-24)
(0.00176395 -0.00176025 4.38978e-24)
(0.001957 -0.00185374 -3.65471e-24)
(0.00214922 -0.00192493 0)
(0.00233762 -0.00197124 -2.25841e-24)
(0.00251944 -0.00199115 -1.02178e-24)
(0.0026923 -0.00198434 -4.31923e-25)
(0.00285432 -0.00195184 1.65054e-24)
(0.00300477 -0.00189579 -7.62045e-25)
(0.00314093 -0.00182052 -3.68558e-25)
(0.00327249 -0.00172694 4.8583e-25)
(-5.52268e-06 1.2924e-05 -1.69254e-24)
(-1.06886e-05 2.66351e-05 1.85677e-24)
(-9.36981e-06 2.83555e-05 -1.75803e-24)
(-7.33346e-07 1.73098e-05 -1.65973e-24)
(1.61046e-05 -7.18257e-06 2.93676e-24)
(4.2061e-05 -4.56759e-05 8.59311e-24)
(7.80669e-05 -9.85641e-05 -1.06539e-23)
(0.000125042 -0.000166045 2.40101e-24)
(0.00018387 -0.000248077 -2.19674e-24)
(0.00025536 -0.000344339 8.50977e-24)
(0.000340218 -0.000454178 -7.84102e-24)
(0.000438988 -0.000576568 3.55552e-24)
(0.000552013 -0.000710061 -9.73566e-24)
(0.00067937 -0.000852754 -5.79477e-24)
(0.000820816 -0.00100226 1.08492e-23)
(0.000975735 -0.00115569 2.39614e-24)
(0.00114305 -0.00130966 -8.83005e-24)
(0.00132125 -0.00146035 7.58969e-24)
(0.00150834 -0.00160365 -3.39403e-24)
(0.00170188 -0.00173524 -2.96554e-24)
(0.00189907 -0.00185084 2.31499e-25)
(0.00209681 -0.00194645 0)
(0.00229191 -0.00201861 1.77737e-24)
(0.00248126 -0.00206474 0)
(0.00266204 -0.00208337 2.05927e-24)
(0.00283197 -0.00207429 2.57734e-25)
(0.00298932 -0.0020387 0)
(0.00313366 -0.00197889 1.94848e-25)
(0.00326234 -0.00189958 -6.88533e-25)
(0.00338643 -0.00180109 6.31338e-25)
(-5.51854e-06 1.20996e-05 0)
(-9.94452e-06 2.38792e-05 -1.85678e-24)
(-7.04921e-06 2.33347e-05 -5.47612e-24)
(4.03968e-06 9.66745e-06 1.20456e-23)
(2.42343e-05 -1.78238e-05 -9.74021e-24)
(5.44727e-05 -5.97071e-05 -2.88937e-24)
(9.56967e-05 -0.000116383 8.41484e-24)
(0.000148822 -0.000188045 -2.7165e-24)
(0.000214707 -0.000274642 2.49205e-24)
(0.00029412 -0.000375822 -4.56215e-24)
(0.000387694 -0.000490895 4.14481e-24)
(0.000495881 -0.000618774 -3.87418e-24)
(0.000618894 -0.000757937 -2.30136e-25)
(0.000756651 -0.000906383 9.31732e-26)
(0.000908715 -0.00106161 3.07069e-24)
(0.00107424 -0.0012206 0)
(0.00125188 -0.00137979 4.44788e-24)
(0.00143984 -0.00153524 -3.92432e-24)
(0.00163583 -0.00168266 0)
(0.00183711 -0.00181758 2.96421e-24)
(0.00204057 -0.0019356 1.00534e-26)
(0.00224288 -0.0020326 -2.34786e-24)
(0.00244064 -0.0021051 -5.71477e-24)
(0.00263063 -0.00215053 -3.25502e-24)
(0.00281004 -0.00216748 0)
(0.00297666 -0.00215589 -1.86989e-24)
(0.00312895 -0.00211713 0)
(0.00326678 -0.00205361 -1.12784e-24)
(0.00338762 -0.00197047 0)
(0.00350393 -0.00186737 -1.52157e-24)
(-5.35803e-06 1.10481e-05 0)
(-8.72885e-06 2.05132e-05 0)
(-3.92821e-06 1.73847e-05 0)
(9.95609e-06 8.45285e-07 -7.27087e-24)
(3.38645e-05 -2.98223e-05 1.01369e-23)
(6.87562e-05 -7.51959e-05 -6.43664e-24)
(0.000115582 -0.000135678 3.09136e-24)
(0.000175252 -0.000211458 5.59934e-24)
(0.000248598 -0.000302467 0)
(0.000336342 -0.000408328 -4.96801e-24)
(0.000439041 -0.000528307 8.82535e-24)
(0.000557045 -0.000661262 -1.47492e-25)
(0.000690432 -0.000805596 -7.25801e-26)
(0.000838949 -0.000959217 -3.29887e-24)
(0.00100196 -0.00111952 3.19074e-24)
(0.00117836 -0.00128334 0)
(0.00136655 -0.001447 -9.99658e-24)
(0.00156442 -0.00160641 8.79063e-24)
(0.00176938 -0.00175713 -3.97185e-24)
(0.00197837 -0.00189458 0)
(0.002188 -0.00201423 -2.78052e-24)
(0.00239468 -0.00211192 2.5678e-24)
(0.00259482 -0.00218414 1.97075e-24)
(0.00278513 -0.00222835 1.46163e-24)
(0.00296278 -0.00224326 0)
(0.0031257 -0.00222894 2.40507e-24)
(0.00327255 -0.00218693 0)
(0.00340353 -0.0021198 0)
(0.00351623 -0.00203303 1.40514e-24)
(0.00362448 -0.00192562 1.66776e-24)
(-5.02144e-06 9.77676e-06 0)
(-6.9877e-06 1.65578e-05 0)
(7.68316e-08 1.05393e-05 0)
(1.71242e-05 -9.10983e-06 7.70899e-24)
(4.5123e-05 -4.31184e-05 7.22801e-24)
(8.50526e-05 -9.20699e-05 -1.03248e-23)
(0.000137872 -0.000156366 3.24637e-24)
(0.000204482 -0.000236185 -5.78898e-24)
(0.000285687 -0.000331442 5.48892e-24)
(0.000382154 -0.00044173 -1.03446e-23)
(0.000494365 -0.000566273 1.36755e-25)
(0.000622556 -0.000703874 1.48004e-25)
(0.000766664 -0.000852864 4.18077e-24)
(0.000926256 -0.00101107 0)
(0.00110048 -0.00117577 -9.68153e-24)
(0.00128798 -0.0013437 6.03481e-24)
(0.00148687 -0.00151105 5.13889e-24)
(0.00169473 -0.0016736 -4.89318e-24)
(0.00190866 -0.00182681 4.31622e-24)
(0.00212527 -0.00196597 -3.51726e-24)
(0.00234088 -0.00208649 6.2755e-24)
(0.00255167 -0.00218417 -2.79277e-24)
(0.00275388 -0.0022555 0)
(0.00294412 -0.00229801 7.19049e-24)
(0.00311961 -0.00231052 -6.57978e-24)
(0.00327844 -0.00229328 -1.37981e-26)
(0.00341947 -0.00224799 -2.19753e-24)
(0.00354326 -0.00217734 -1.5305e-24)
(0.00364756 -0.0020872 -1.01933e-24)
(0.00374755 -0.00197576 0)
(-4.48979e-06 8.295e-06 0)
(-4.66902e-06 1.20402e-05 0)
(5.04646e-06 2.84247e-06 4.18019e-24)
(2.56482e-05 -2.01378e-05 -7.94863e-24)
(5.81321e-05 -5.76366e-05 -7.65098e-24)
(0.000103497 -0.000110238 1.07236e-23)
(0.000162707 -0.000178339 -3.46402e-24)
(0.000236653 -0.000262106 -6.28684e-24)
(0.000326106 -0.000361431 3.00694e-24)
(0.000431677 -0.000475877 0)
(0.000553761 -0.000604628 9.94816e-24)
(0.000692481 -0.00074643 -9.29769e-24)
(0.000847619 -0.000899548 0)
(0.00101856 -0.00106172 0)
(0.00120421 -0.00123015 -3.61739e-24)
(0.00140297 -0.00140145 -6.5372e-24)
(0.00161264 -0.0015717 5.86882e-24)
(0.0018305 -0.00173658 4.89106e-24)
(0.00205331 -0.00189144 -8.9388e-24)
(0.00227738 -0.00203152 -4.05248e-24)
(0.00249874 -0.00215215 3.51725e-24)
(0.00271331 -0.00224912 -2.79333e-24)
(0.0029172 -0.00231898 2.57722e-24)
(0.00310696 -0.00235932 0)
(0.00327987 -0.00236913 2.0652e-26)
(0.00343419 -0.0023488 8.6115e-24)
(0.00356905 -0.00230024 -2.44566e-24)
(0.00368536 -0.00222622 0)
(0.00378102 -0.00213295 3.14923e-24)
(0.00387263 -0.00201777 -2.42071e-24)
(-3.74502e-06 6.61436e-06 0)
(-1.72337e-06 6.99327e-06 -9.64431e-24)
(1.10572e-05 -5.65265e-06 8.91213e-24)
(3.5627e-05 -3.21662e-05 4.40326e-24)
(7.30081e-05 -7.32858e-05 -8.13277e-24)
(0.000124216 -0.000129593 -3.67356e-24)
(0.000190221 -0.000201472 1.76998e-23)
(0.000271896 -0.000289077 -1.66655e-23)
(0.000369979 -0.000392275 9.41368e-24)
(0.000485017 -0.000510598 5.8943e-24)
(0.000617316 -0.000643185 5.45179e-24)
(0.000766873 -0.00078873 0)
(0.000933311 -0.000945434 -8.88342e-24)
(0.00111582 -0.00111096 8.27887e-24)
(0.00131307 -0.00128243 1.0969e-23)
(0.00152318 -0.00145634 -7.24414e-24)
(0.00174365 -0.0016287 3.76672e-25)
(0.00197145 -0.0017951 -5.28318e-24)
(0.00220299 -0.0019508 4.57904e-24)
(0.00243428 -0.00209099 4.05063e-24)
(0.00266106 -0.00221099 2.57667e-25)
(0.00287904 -0.0023066 0)
(0.00308418 -0.00237441 5.546e-24)
(0.00327301 -0.00241217 0)
(0.00344289 -0.00241899 3.91203e-24)
(0.00359229 -0.00239546 2.81305e-25)
(0.00372063 -0.00234366 2.39184e-24)
(0.00382917 -0.00226644 -2.5718e-25)
(0.00391601 -0.00217035 -6.46772e-24)
(0.00399913 -0.00205173 3.83099e-24)
(-2.77012e-06 4.74826e-06 0)
(1.89574e-06 1.45527e-06 -1.01774e-23)
(1.81811e-05 -1.48841e-05 2.39837e-23)
(4.71534e-05 -4.51107e-05 -4.45031e-24)
(8.98597e-05 -8.99607e-05 0)
(0.00014733 -0.000150007 2.11272e-25)
(0.000220536 -0.000225622 1.49635e-23)
(0.000310333 -0.000316938 -1.40746e-23)
(0.000417418 -0.000423797 -6.28436e-24)
(0.000542272 -0.000545697 6.27742e-24)
(0.000685101 -0.000681735 -2.23304e-23)
(0.000845772 -0.000830554 2.59519e-23)
(0.00102374 -0.000990292 -1.89624e-23)
(0.00121799 -0.00115855 4.29947e-24)
(0.00142695 -0.00133235 -7.79565e-24)
(0.00164844 -0.00150812 7.147e-24)
(0.00187966 -0.00168181 6.91802e-24)
(0.00211726 -0.00184891 -5.62578e-24)
(0.00235732 -0.00200465 4.89287e-24)
(0.00259552 -0.00214417 -4.35315e-24)
(0.00282734 -0.00226281 2.52481e-25)
(0.00304829 -0.00235642 0)
(0.0032542 -0.00242168 -5.5436e-24)
(0.00344161 -0.00245646 3.97095e-25)
(0.00360799 -0.00246006 3.71079e-25)
(0.00375205 -0.00243326 3.4889e-24)
(0.00387354 -0.0023783 -2.94817e-24)
(0.00397406 -0.00229809 4.75332e-24)
(0.00405192 -0.00219951 3.88612e-24)
(0.00412649 -0.00207778 0)
(-1.54929e-06 2.71187e-06 1.04508e-23)
(6.23161e-06 -4.5306e-06 -2.75573e-24)
(2.64849e-05 -2.4782e-05 0)
(6.03134e-05 -5.88762e-05 -4.66795e-24)
(0.000108787 -0.000107542 0)
(0.000172948 -0.000171341 -4.11915e-24)
(0.000253765 -0.000250626 0)
(0.000352073 -0.000345508 -1.09165e-23)
(0.000468522 -0.000455799 -6.57067e-24)
(0.000603521 -0.000580962 1.93679e-23)
(0.000757171 -0.000720052 5.75118e-24)
(0.0009292 -0.000871661 -1.61155e-23)
(0.00111889 -0.00103387 1.65902e-25)
(0.001325 -0.00120422 2.27736e-23)
(0.00154572 -0.00137966 -1.94679e-25)
(0.00177856 -0.00155655 -1.5437e-23)
(0.00202043 -0.00173077 -6.61943e-24)
(0.00226762 -0.00189777 0)
(0.0025159 -0.00205275 5.25108e-24)
(0.00276064 -0.00219086 4.6369e-24)
(0.00299706 -0.00230745 -8.5768e-24)
(0.00322047 -0.00239845 0)
(0.00342663 -0.00246067 -6.36977e-24)
(0.0036121 -0.00249213 -5.04386e-24)
(0.0037745 -0.00249232 -4.1913e-24)
(0.00391282 -0.00246221 -3.14185e-24)
(0.00402711 -0.00240422 3.20047e-24)
(0.00411937 -0.00232129 -4.75185e-24)
(0.00418814 -0.0022206 3.70352e-25)
(0.0042541 -0.00209611 3.34322e-24)
(-6.79672e-08 5.21946e-07 0)
(1.13239e-05 -1.09166e-05 -1.39432e-25)
(3.60297e-05 -3.52693e-05 -1.6124e-23)
(7.51853e-05 -7.3358e-05 4.93723e-24)
(0.000129881 -0.0001259 0)
(0.000201168 -0.00019344 2.22617e-23)
(0.000290008 -0.000276308 -3.75144e-23)
(0.000397211 -0.000374588 7.8202e-24)
(0.000523374 -0.000488064 -1.4386e-23)
(0.000668828 -0.00061616 6.94158e-24)
(0.000833564 -0.00075789 0)
(0.00101716 -0.000911797 0)
(0.00121872 -0.00107591 -5.40645e-24)
(0.00143678 -0.00124771 4.95265e-24)
(0.00166925 -0.00142408 0)
(0.00191335 -0.00160135 7.7706e-24)
(0.00216567 -0.00177533 0)
(0.00242218 -0.00194145 1.2942e-23)
(0.00267832 -0.00209491 -5.85377e-24)
(0.00292916 -0.00223087 0)
(0.00316967 -0.00234476 -4.81045e-24)
(0.003395 -0.00243259 0)
(0.00360086 -0.00249133 1.3148e-23)
(0.00378384 -0.00251917 5.77373e-24)
(0.00394177 -0.0025158 4.87308e-24)
(0.00407393 -0.00248241 0)
(0.00418069 -0.00242155 2.84581e-25)
(0.00426446 -0.00233619 2.85502e-24)
(0.00432407 -0.00223382 -4.2542e-24)
(0.00438135 -0.00210698 -3.34226e-24)
(1.68709e-06 -1.8034e-06 1.15391e-23)
(1.72085e-05 -1.76509e-05 -3.17711e-24)
(4.68703e-05 -4.62621e-05 -2.65946e-25)
(9.18389e-05 -8.84421e-05 1.56951e-23)
(0.000153221 -0.000144892 -1.50526e-23)
(0.000232074 -0.000216135 -4.55129e-24)
(0.00032935 -0.000302475 -2.06999e-25)
(0.000445824 -0.000403967 -1.93745e-25)
(0.00058204 -0.000520361 0)
(0.000738241 -0.000651044 -1.40168e-23)
(0.000914299 -0.000794987 1.94066e-23)
(0.00110964 -0.000950689 -1.21203e-23)
(0.00132317 -0.00111613 1.10808e-23)
(0.0015532 -0.00128874 -4.95076e-24)
(0.00179735 -0.00146536 0)
(0.00205257 -0.00164225 8.61729e-24)
(0.0023151 -0.00181523 -3.17453e-25)
(0.00258059 -0.00197972 -6.56261e-24)
(0.00284415 -0.00213091 5.91575e-24)
(0.00310058 -0.00226403 -5.47408e-24)
(0.00334463 -0.0023746 1.87103e-23)
(0.00357129 -0.00245876 -1.62056e-23)
(0.00377624 -0.00251362 7.19871e-24)
(0.00395618 -0.0025376 -2.38263e-23)
(0.00410915 -0.00253057 -9.61137e-24)
(0.00423471 -0.00249393 4.04824e-25)
(0.00433365 -0.0024304 7.5794e-24)
(0.00440871 -0.00234296 8.79091e-24)
(0.00445909 -0.00223938 -2.5399e-24)
(0.00450759 -0.00211063 0)
(3.72771e-06 -4.24479e-06 -1.20922e-23)
(2.39172e-05 -2.46783e-05 -2.84627e-25)
(5.90552e-05 -5.76712e-05 5.7373e-24)
(0.000110335 -0.000104007 5.37669e-24)
(0.000178877 -0.000164367 -2.61088e-23)
(0.000265741 -0.000239246 3.9059e-23)
(0.00037186 -0.000328923 -2.74153e-23)
(0.000497976 -0.000433417 4.26626e-23)
(0.000644567 -0.000552443 -1.59599e-23)
(0.000811783 -0.00068535 -2.22435e-23)
(0.000999372 -0.000831069 1.38272e-23)
(0.0012066 -0.000988055 1.61888e-25)
(0.00143216 -0.00115425 6.03056e-24)
(0.00167413 -0.00132703 0)
(0.00192986 -0.0015032 9.6128e-24)
(0.00219597 -0.001679 -8.50744e-24)
(0.0024684 -0.00185024 1.59388e-23)
(0.00274246 -0.00201235 -6.97173e-24)
(0.00301296 -0.00216057 -6.23063e-24)
(0.00327442 -0.0022902 -5.49675e-24)
(0.00352138 -0.00239688 -1.41266e-23)
(0.00374874 -0.00247689 1.72046e-23)
(0.00395218 -0.00252755 7.12846e-24)
(0.0041285 -0.00254745 -8.63782e-25)
(0.004276 -0.00253671 -4.0017e-25)
(0.00439456 -0.00249692 0)
(0.00448538 -0.00243094 4.80029e-25)
(0.00455151 -0.00234179 -1.24617e-23)
(0.00459267 -0.00223752 2.41788e-24)
(0.00463219 -0.00210739 -4.2216e-24)
(6.0642e-06 -6.78178e-06 2.84633e-26)
(3.14776e-05 -3.19401e-05 1.93859e-23)
(7.26258e-05 -6.94017e-05 0)
(0.000130726 -0.000119924 1.15752e-23)
(0.000206907 -0.000184163 2.1704e-23)
(0.000302225 -0.000262586 -2.04867e-23)
(0.000417594 -0.000355436 -1.88372e-23)
(0.00055371 -0.000462698 1.35495e-23)
(0.000710981 -0.000584051 -8.49577e-24)
(0.00088946 -0.000718804 7.55075e-24)
(0.00108876 -0.000865849 -6.99474e-24)
(0.00130796 -0.0010236 -1.9885e-23)
(0.00154558 -0.00118996 1.22503e-23)
(0.00179942 -0.00136228 0)
(0.00206654 -0.00153731 -3.44446e-25)
(0.00234327 -0.00171132 -1.83978e-23)