/*--------------------------------*- C++ -*----------------------------------*\
| =========                 |                                                 |
| \\      /  F ield         | foam-extend: Open Source CFD                    |
|  \\    /   O peration     | Version:     4.0                                |
|   \\  /    A nd           | Web:         http://www.foam-extend.org         |
|    \\/     M anipulation  |                                                 |
\*---------------------------------------------------------------------------*/
FoamFile
{
    version     2.0;
    format      ascii;
    class       volScalarField;
    location    "45";
    object      p;
}
// * * * * * * * * * * * * * * * * * * * * * * * * * * * * * * * * * * * * * //

dimensions      [0 2 -2 0 0 0 0];

internalField   nonuniform List<scalar> 
36000
(
-7.40874e-06
-7.46133e-06
-7.51664e-06
-7.56724e-06
-7.61383e-06
-7.65732e-06
-7.69782e-06
-7.73525e-06
-7.76959e-06
-7.80088e-06
-7.82917e-06
-7.85451e-06
-7.87692e-06
-7.89636e-06
-7.91268e-06
-7.92561e-06
-7.93473e-06
-7.9394e-06
-7.93874e-06
-7.93158e-06
-7.9164e-06
-7.89129e-06
-7.85393e-06
-7.80157e-06
-7.73098e-06
-7.63853e-06
-7.52006e-06
-7.37028e-06
-7.18601e-06
-6.96031e-06
-7.4268e-06
-7.47864e-06
-7.53317e-06
-7.58308e-06
-7.62906e-06
-7.67199e-06
-7.71198e-06
-7.74895e-06
-7.7829e-06
-7.81384e-06
-7.84184e-06
-7.86695e-06
-7.88918e-06
-7.90851e-06
-7.92477e-06
-7.93771e-06
-7.94692e-06
-7.95175e-06
-7.95135e-06
-7.94453e-06
-7.9298e-06
-7.90526e-06
-7.8686e-06
-7.81706e-06
-7.74743e-06
-7.65607e-06
-7.53889e-06
-7.39115e-06
-7.20821e-06
-6.98234e-06
-7.46266e-06
-7.51303e-06
-7.56604e-06
-7.61458e-06
-7.65933e-06
-7.70115e-06
-7.74014e-06
-7.77621e-06
-7.80936e-06
-7.83961e-06
-7.86704e-06
-7.89167e-06
-7.91355e-06
-7.93263e-06
-7.94878e-06
-7.96174e-06
-7.9711e-06
-7.97625e-06
-7.97634e-06
-7.9702e-06
-7.95635e-06
-7.93292e-06
-7.89761e-06
-7.84769e-06
-7.77995e-06
-7.69075e-06
-7.57612e-06
-7.43167e-06
-7.25186e-06
-7.02582e-06
-7.51566e-06
-7.56386e-06
-7.61462e-06
-7.66116e-06
-7.70411e-06
-7.74429e-06
-7.78178e-06
-7.81652e-06
-7.84848e-06
-7.87771e-06
-7.90426e-06
-7.92819e-06
-7.94953e-06
-7.96823e-06
-7.98417e-06
-7.99713e-06
-8.0067e-06
-8.01229e-06
-8.01307e-06
-8.0079e-06
-7.99532e-06
-7.97348e-06
-7.94012e-06
-7.89253e-06
-7.82753e-06
-7.74151e-06
-7.63063e-06
-7.49049e-06
-7.31527e-06
-7.08897e-06
-7.5848e-06
-7.63019e-06
-7.67805e-06
-7.72199e-06
-7.7626e-06
-7.80063e-06
-7.83617e-06
-7.86915e-06
-7.89956e-06
-7.92743e-06
-7.95283e-06
-7.9758e-06
-7.99638e-06
-8.01455e-06
-8.0302e-06
-8.0431e-06
-8.05289e-06
-8.059e-06
-8.06061e-06
-8.05664e-06
-8.04564e-06
-8.0258e-06
-7.99489e-06
-7.95026e-06
-7.88876e-06
-7.80686e-06
-7.70063e-06
-7.56581e-06
-7.39642e-06
-7.16934e-06
-7.6688e-06
-7.71083e-06
-7.7552e-06
-7.796e-06
-7.83377e-06
-7.86921e-06
-7.90237e-06
-7.93321e-06
-7.9617e-06
-7.98788e-06
-8.01183e-06
-8.03359e-06
-8.05321e-06
-8.07067e-06
-8.08588e-06
-8.09865e-06
-8.10863e-06
-8.11527e-06
-8.11781e-06
-8.11518e-06
-8.10598e-06
-8.08845e-06
-8.06041e-06
-8.01926e-06
-7.96192e-06
-7.88476e-06
-7.78386e-06
-7.65538e-06
-7.49307e-06
-7.26455e-06
-7.7662e-06
-7.80438e-06
-7.84475e-06
-7.88194e-06
-7.91645e-06
-7.94887e-06
-7.97928e-06
-8.0076e-06
-8.03384e-06
-8.05803e-06
-8.08024e-06
-8.10053e-06
-8.11894e-06
-8.1355e-06
-8.15011e-06
-8.16262e-06
-8.17269e-06
-8.17983e-06
-8.18331e-06
-8.18209e-06
-8.17482e-06
-8.1598e-06
-8.13493e-06
-8.09764e-06
-8.04482e-06
-7.97281e-06
-7.87787e-06
-7.75648e-06
-7.60248e-06
-7.36995e-06
-7.87533e-06
-7.90927e-06
-7.94522e-06
-7.97843e-06
-8.00929e-06
-8.03836e-06
-8.06566e-06
-8.09115e-06
-8.11482e-06
-8.13671e-06
-8.1569e-06
-8.17545e-06
-8.19242e-06
-8.20784e-06
-8.22166e-06
-8.23373e-06
-8.24376e-06
-8.25129e-06
-8.25563e-06
-8.25579e-06
-8.2505e-06
-8.2381e-06
-8.21653e-06
-8.18322e-06
-8.1351e-06
-8.06855e-06
-7.98e-06
-7.86619e-06
-7.72198e-06
-7.48095e-06
-7.99443e-06
-8.02385e-06
-8.05507e-06
-8.08397e-06
-8.11091e-06
-8.13631e-06
-8.16022e-06
-8.18259e-06
-8.2034e-06
-8.22272e-06
-8.24061e-06
-8.25715e-06
-8.27242e-06
-8.28646e-06
-8.29924e-06
-8.31066e-06
-8.32045e-06
-8.32819e-06
-8.33325e-06
-8.3347e-06
-8.3313e-06
-8.32144e-06
-8.30309e-06
-8.27376e-06
-8.23043e-06
-8.16949e-06
-8.08742e-06
-7.98139e-06
-7.84976e-06
-7.58889e-06
-8.1217e-06
-8.14641e-06
-8.17268e-06
-8.19707e-06
-8.21985e-06
-8.24136e-06
-8.26164e-06
-8.28063e-06
-8.29834e-06
-8.31481e-06
-8.33014e-06
-8.3444e-06
-8.3577e-06
-8.37009e-06
-8.38158e-06
-8.39208e-06
-8.40138e-06
-8.40912e-06
-8.41468e-06
-8.41718e-06
-8.41541e-06
-8.40787e-06
-8.39259e-06
-8.36714e-06
-8.32857e-06
-8.2732e-06
-8.19724e-06
-8.09782e-06
-7.98492e-06
-7.68872e-06
-8.25536e-06
-8.27526e-06
-8.29647e-06
-8.31622e-06
-8.33469e-06
-8.35215e-06
-8.3686e-06
-8.38401e-06
-8.39839e-06
-8.41179e-06
-8.42429e-06
-8.43601e-06
-8.44706e-06
-8.45752e-06
-8.46743e-06
-8.47673e-06
-8.48526e-06
-8.49269e-06
-8.49839e-06
-8.50157e-06
-8.50114e-06
-8.49564e-06
-8.48318e-06
-8.46138e-06
-8.42734e-06
-8.3774e-06
-8.30724e-06
-8.2111e-06
-8.11716e-06
-7.82238e-06
-8.39368e-06
-8.40879e-06
-8.42493e-06
-8.43998e-06
-8.45406e-06
-8.46735e-06
-8.47985e-06
-8.49153e-06
-8.50239e-06
-8.51249e-06
-8.52194e-06
-8.53086e-06
-8.5394e-06
-8.54765e-06
-8.55567e-06
-8.56345e-06
-8.57085e-06
-8.57752e-06
-8.58296e-06
-8.58645e-06
-8.587e-06
-8.58319e-06
-8.57318e-06
-8.55467e-06
-8.5248e-06
-8.47994e-06
-8.41636e-06
-8.33015e-06
-8.23252e-06
-7.95418e-06
-8.5351e-06
-8.54551e-06
-8.55664e-06
-8.56703e-06
-8.57671e-06
-8.58579e-06
-8.59424e-06
-8.60206e-06
-8.60925e-06
-8.61588e-06
-8.62207e-06
-8.62797e-06
-8.63374e-06
-8.63949e-06
-8.64529e-06
-8.65115e-06
-8.65695e-06
-8.66245e-06
-8.66721e-06
-8.67062e-06
-8.6717e-06
-8.66914e-06
-8.66116e-06
-8.6455e-06
-8.61931e-06
-8.57903e-06
-8.52132e-06
-8.44241e-06
-8.34631e-06
-8.07433e-06
-8.6782e-06
-8.68408e-06
-8.69036e-06
-8.69619e-06
-8.70153e-06
-8.70639e-06
-8.71076e-06
-8.71463e-06
-8.71803e-06
-8.72106e-06
-8.72384e-06
-8.72653e-06
-8.72926e-06
-8.73216e-06
-8.73534e-06
-8.73885e-06
-8.74265e-06
-8.74655e-06
-8.75023e-06
-8.7531e-06
-8.75426e-06
-8.75245e-06
-8.74597e-06
-8.73261e-06
-8.70955e-06
-8.67325e-06
-8.6205e-06
-8.54747e-06
-8.45606e-06
-8.18348e-06
-8.82176e-06
-8.82335e-06
-8.82501e-06
-8.82646e-06
-8.8276e-06
-8.82834e-06
-8.82866e-06
-8.82854e-06
-8.82808e-06
-8.8274e-06
-8.82661e-06
-8.82581e-06
-8.82516e-06
-8.82484e-06
-8.82504e-06
-8.82583e-06
-8.82724e-06
-8.82917e-06
-8.83132e-06
-8.83317e-06
-8.83389e-06
-8.83229e-06
-8.82674e-06
-8.81508e-06
-8.79453e-06
-8.76154e-06
-8.71299e-06
-8.64492e-06
-8.55875e-06
-8.28201e-06
-8.96473e-06
-8.9623e-06
-8.95962e-06
-8.9569e-06
-8.95398e-06
-8.95073e-06
-8.9471e-06
-8.9431e-06
-8.93877e-06
-8.93421e-06
-8.92955e-06
-8.92499e-06
-8.92071e-06
-8.91696e-06
-8.91391e-06
-8.91168e-06
-8.91036e-06
-8.90989e-06
-8.91005e-06
-8.91038e-06
-8.91013e-06
-8.90817e-06
-8.90296e-06
-8.89237e-06
-8.87366e-06
-8.84329e-06
-8.79818e-06
-8.7342e-06
-8.65295e-06
-8.36968e-06
-9.10636e-06
-9.10027e-06
-9.09355e-06
-9.0869e-06
-9.08009e-06
-9.07295e-06
-9.06541e-06
-9.05749e-06
-9.04924e-06
-9.04077e-06
-9.03223e-06
-9.02381e-06
-9.01578e-06
-9.00837e-06
-9.00178e-06
-8.9962e-06
-8.99176e-06
-8.98848e-06
-8.98619e-06
-8.98452e-06
-8.98278e-06
-8.97992e-06
-8.97444e-06
-8.96429e-06
-8.94674e-06
-8.91826e-06
-8.87581e-06
-8.81503e-06
-8.73819e-06
-8.44633e-06
-9.24622e-06
-9.23679e-06
-9.22638e-06
-9.21608e-06
-9.20561e-06
-9.19475e-06
-9.18342e-06
-9.17164e-06
-9.15949e-06
-9.14707e-06
-9.13457e-06
-9.1222e-06
-9.11024e-06
-9.09894e-06
-9.08855e-06
-9.07931e-06
-9.07142e-06
-9.06494e-06
-9.0598e-06
-9.05567e-06
-9.05194e-06
-9.04764e-06
-9.04132e-06
-9.03098e-06
-9.01393e-06
-8.98661e-06
-8.94601e-06
-8.88751e-06
-8.81444e-06
-8.51205e-06
-9.38407e-06
-9.37167e-06
-9.35791e-06
-9.34423e-06
-9.33034e-06
-9.31594e-06
-9.30095e-06
-9.28541e-06
-9.2694e-06
-9.25304e-06
-9.23652e-06
-9.22011e-06
-9.20409e-06
-9.18871e-06
-9.17429e-06
-9.16114e-06
-9.1495e-06
-9.1395e-06
-9.13112e-06
-9.12412e-06
-9.11795e-06
-9.11171e-06
-9.10401e-06
-9.09289e-06
-9.07567e-06
-9.04876e-06
-9.0092e-06
-8.95205e-06
-8.88204e-06
-8.56723e-06
-9.51994e-06
-9.5049e-06
-9.48813e-06
-9.47137e-06
-9.45428e-06
-9.43652e-06
-9.41802e-06
-9.39883e-06
-9.37901e-06
-9.35873e-06
-9.3382e-06
-9.31769e-06
-9.29748e-06
-9.27788e-06
-9.25927e-06
-9.24201e-06
-9.22637e-06
-9.21256e-06
-9.20063e-06
-9.19039e-06
-9.18138e-06
-9.17274e-06
-9.16315e-06
-9.15066e-06
-9.13262e-06
-9.1054e-06
-9.06602e-06
-9.00926e-06
-8.94156e-06
-8.61248e-06
-9.65407e-06
-9.6367e-06
-9.61723e-06
-9.59765e-06
-9.57758e-06
-9.55666e-06
-9.5348e-06
-9.51205e-06
-9.48852e-06
-9.46436e-06
-9.43982e-06
-9.41517e-06
-9.39071e-06
-9.36681e-06
-9.34389e-06
-9.32234e-06
-9.30252e-06
-9.28467e-06
-9.26892e-06
-9.25514e-06
-9.24293e-06
-9.23149e-06
-9.21954e-06
-9.20514e-06
-9.18563e-06
-9.15733e-06
-9.1173e-06
-9.05989e-06
-8.99371e-06
-8.64862e-06
-9.78687e-06
-9.76746e-06
-9.74556e-06
-9.7234e-06
-9.70057e-06
-9.67665e-06
-9.65157e-06
-9.6254e-06
-9.59823e-06
-9.57027e-06
-9.54175e-06
-9.51295e-06
-9.4842e-06
-9.45595e-06
-9.42864e-06
-9.4027e-06
-9.37856e-06
-9.35651e-06
-9.33672e-06
-9.31915e-06
-9.30345e-06
-9.28886e-06
-9.2741e-06
-9.25725e-06
-9.23563e-06
-9.2055e-06
-9.16389e-06
-9.10472e-06
-9.03924e-06
-8.67663e-06
-9.91894e-06
-9.89771e-06
-9.87363e-06
-9.8491e-06
-9.82367e-06
-9.79691e-06
-9.76875e-06
-9.73926e-06
-9.70856e-06
-9.67686e-06
-9.6444e-06
-9.61146e-06
-9.57846e-06
-9.54584e-06
-9.51411e-06
-9.48373e-06
-9.45518e-06
-9.4288e-06
-9.40484e-06
-9.3833e-06
-9.36386e-06
-9.34577e-06
-9.32778e-06
-9.30796e-06
-9.28358e-06
-9.25083e-06
-9.20672e-06
-9.14455e-06
-9.0787e-06
-8.69757e-06
-1.0051e-05
-1.00281e-05
-1.0002e-05
-9.97529e-06
-9.94742e-06
-9.91795e-06
-9.88683e-06
-9.85413e-06
-9.81999e-06
-9.78463e-06
-9.74827e-06
-9.71126e-06
-9.67404e-06
-9.63709e-06
-9.60094e-06
-9.56611e-06
-9.53311e-06
-9.50235e-06
-9.47413e-06
-9.44846e-06
-9.42504e-06
-9.40315e-06
-9.38152e-06
-9.3582e-06
-9.3304e-06
-9.29421e-06
-9.2466e-06
-9.1802e-06
-9.11242e-06
-8.71247e-06
-1.01838e-05
-1.01594e-05
-1.01315e-05
-1.01026e-05
-1.00724e-05
-1.00403e-05
-1.00064e-05
-9.97054e-06
-9.93306e-06
-9.89409e-06
-9.85391e-06
-9.81291e-06
-9.77154e-06
-9.73031e-06
-9.68978e-06
-9.65053e-06
-9.6131e-06
-9.57795e-06
-9.54539e-06
-9.51545e-06
-9.48785e-06
-9.46187e-06
-9.43621e-06
-9.40885e-06
-9.37693e-06
-9.3364e-06
-9.28417e-06
-9.21237e-06
-9.14064e-06
-8.72272e-06
-1.03181e-05
-1.02923e-05
-1.02626e-05
-1.02317e-05
-1.01993e-05
-1.01647e-05
-1.01279e-05
-1.00891e-05
-1.00483e-05
-1.00058e-05
-9.9619e-06
-9.91699e-06
-9.87155e-06
-9.82612e-06
-9.7813e-06
-9.73769e-06
-9.69587e-06
-9.65633e-06
-9.61937e-06
-9.58505e-06
-9.55309e-06
-9.52274e-06
-9.49263e-06
-9.46067e-06
-9.42387e-06
-9.37802e-06
-9.31989e-06
-9.2417e-06
-9.16354e-06
-8.73111e-06
-1.04549e-05
-1.04277e-05
-1.03962e-05
-1.03633e-05
-1.03286e-05
-1.02916e-05
-1.02521e-05
-1.02102e-05
-1.01662e-05
-1.01203e-05
-1.00728e-05
-1.00241e-05
-9.97465e-06
-9.92512e-06
-9.8761e-06
-9.82823e-06
-9.78208e-06
-9.73814e-06
-9.69675e-06
-9.65795e-06
-9.62144e-06
-9.58641e-06
-9.55143e-06
-9.5143e-06
-9.47183e-06
-9.41963e-06
-9.35424e-06
-9.26833e-06
-9.1794e-06
-8.7393e-06
-1.0595e-05
-1.05662e-05
-1.05329e-05
-1.04981e-05
-1.04611e-05
-1.04216e-05
-1.03794e-05
-1.03346e-05
-1.02875e-05
-1.02382e-05
-1.01871e-05
-1.01347e-05
-1.00814e-05
-1.00279e-05
-9.97477e-06
-9.9227e-06
-9.87226e-06
-9.82395e-06
-9.77809e-06
-9.7347e-06
-9.69344e-06
-9.65342e-06
-9.61313e-06
-9.57021e-06
-9.5213e-06
-9.46176e-06
-9.38763e-06
-9.29159e-06
-9.18033e-06
-8.73746e-06
-1.0739e-05
-1.07087e-05
-1.06734e-05
-1.06365e-05
-1.05973e-05
-1.05553e-05
-1.05104e-05
-1.04627e-05
-1.04124e-05
-1.03598e-05
-1.03053e-05
-1.02492e-05
-1.01922e-05
-1.01348e-05
-1.00777e-05
-1.00216e-05
-9.96689e-06
-9.91422e-06
-9.86384e-06
-9.81574e-06
-9.76949e-06
-9.72414e-06
-9.67806e-06
-9.62876e-06
-9.57266e-06
-9.50519e-06
-9.42098e-06
-9.31158e-06
-9.15628e-06
-8.71537e-06
-1.08875e-05
-1.08556e-05
-1.08183e-05
-1.07792e-05
-1.07377e-05
-1.06932e-05
-1.06455e-05
-1.05949e-05
-1.05416e-05
-1.04858e-05
-1.04278e-05
-1.03683e-05
-1.03076e-05
-1.02464e-05
-1.01854e-05
-1.01252e-05
-1.00663e-05
-1.00093e-05
-9.9543e-06
-9.90132e-06
-9.84982e-06
-9.79874e-06
-9.74637e-06
-9.6901e-06
-9.62637e-06
-9.55083e-06
-9.45699e-06
-9.33612e-06
-9.13629e-06
-8.79735e-06
-1.10413e-05
-1.10074e-05
-1.09681e-05
-1.09267e-05
-1.08827e-05
-1.08356e-05
-1.07852e-05
-1.07317e-05
-1.06753e-05
-1.06163e-05
-1.0555e-05
-1.0492e-05
-1.04278e-05
-1.03629e-05
-1.0298e-05
-1.02338e-05
-1.01708e-05
-1.01093e-05
-1.00496e-05
-9.99155e-06
-9.93446e-06
-9.87721e-06
-9.81798e-06
-9.75409e-06
-9.68235e-06
-9.59895e-06
-9.49787e-06
-9.37739e-06
-9.19907e-06
-9.3219e-06
-1.12006e-05
-1.11647e-05
-1.1123e-05
-1.10792e-05
-1.10327e-05
-1.09829e-05
-1.09297e-05
-1.08733e-05
-1.08138e-05
-1.07516e-05
-1.06871e-05
-1.06207e-05
-1.05529e-05
-1.04844e-05
-1.04158e-05
-1.03476e-05
-1.02804e-05
-1.02144e-05
-1.01498e-05
-1.00864e-05
-1.00233e-05
-9.9593e-06
-9.89246e-06
-9.82015e-06
-9.73916e-06
-9.64614e-06
-9.5355e-06
-9.4106e-06
-9.24151e-06
-9.414e-06
-1.13657e-05
-1.13276e-05
-1.12833e-05
-1.1237e-05
-1.11878e-05
-1.11353e-05
-1.10792e-05
-1.10198e-05
-1.09573e-05
-1.0892e-05
-1.08242e-05
-1.07545e-05
-1.06832e-05
-1.06112e-05
-1.05388e-05
-1.04666e-05
-1.03951e-05
-1.03245e-05
-1.02548e-05
-1.01856e-05
-1.0116e-05
-1.00446e-05
-9.96932e-06
-9.88754e-06
-9.79588e-06
-9.69112e-06
-9.56803e-06
-9.43052e-06
-9.24473e-06
-9.35529e-06
-1.15367e-05
-1.14962e-05
-1.14492e-05
-1.14001e-05
-1.13482e-05
-1.12928e-05
-1.12338e-05
-1.11714e-05
-1.11059e-05
-1.10374e-05
-1.09664e-05
-1.08933e-05
-1.08187e-05
-1.0743e-05
-1.06668e-05
-1.05906e-05
-1.05147e-05
-1.04393e-05
-1.03642e-05
-1.02888e-05
-1.02122e-05
-1.01326e-05
-1.00481e-05
-9.95559e-06
-9.85186e-06
-9.73351e-06
-9.59537e-06
-9.44049e-06
-9.23249e-06
-9.28666e-06
-1.17136e-05
-1.16705e-05
-1.16206e-05
-1.15687e-05
-1.15139e-05
-1.14555e-05
-1.13936e-05
-1.13281e-05
-1.12595e-05
-1.11878e-05
-1.11136e-05
-1.10372e-05
-1.09592e-05
-1.08799e-05
-1.07999e-05
-1.07196e-05
-1.06391e-05
-1.05585e-05
-1.04776e-05
-1.03956e-05
-1.03112e-05
-1.02228e-05
-1.01279e-05
-1.00236e-05
-9.90644e-06
-9.77302e-06
-9.6179e-06
-9.44341e-06
-9.21343e-06
-9.21714e-06
-1.18963e-05
-1.18504e-05
-1.17975e-05
-1.17425e-05
-1.16847e-05
-1.16233e-05
-1.15583e-05
-1.14897e-05
-1.1418e-05
-1.13432e-05
-1.12657e-05
-1.1186e-05
-1.11045e-05
-1.10216e-05
-1.09377e-05
-1.0853e-05
-1.07678e-05
-1.06818e-05
-1.05946e-05
-1.05053e-05
-1.04125e-05
-1.03144e-05
-1.02082e-05
-1.0091e-05
-9.95912e-06
-9.80926e-06
-9.63599e-06
-9.44093e-06
-9.1899e-06
-9.14668e-06
-1.20845e-05
-1.20356e-05
-1.19794e-05
-1.19213e-05
-1.18604e-05
-1.17959e-05
-1.17277e-05
-1.16561e-05
-1.15811e-05
-1.15032e-05
-1.14225e-05
-1.13394e-05
-1.12544e-05
-1.11678e-05
-1.10798e-05
-1.09906e-05
-1.09003e-05
-1.08084e-05
-1.07145e-05
-1.06173e-05
-1.05154e-05
-1.04065e-05
-1.02881e-05
-1.01568e-05
-1.00093e-05
-9.84197e-06
-9.64978e-06
-9.43391e-06
-9.16297e-06
-9.07627e-06
-1.22777e-05
-1.22257e-05
-1.21661e-05
-1.21047e-05
-1.20406e-05
-1.19729e-05
-1.19016e-05
-1.18268e-05
-1.17487e-05
-1.16675e-05
-1.15835e-05
-1.14971e-05
-1.14085e-05
-1.1318e-05
-1.12257e-05
-1.11318e-05
-1.1036e-05
-1.09379e-05
-1.08366e-05
-1.07308e-05
-1.06189e-05
-1.04985e-05
-1.03668e-05
-1.02206e-05
-1.00563e-05
-9.87078e-06
-9.65926e-06
-9.42276e-06
-9.13315e-06
-9.00656e-06
-1.24754e-05
-1.24201e-05
-1.2357e-05
-1.22923e-05
-1.22249e-05
-1.2154e-05
-1.20795e-05
-1.20015e-05
-1.19202e-05
-1.18358e-05
-1.17485e-05
-1.16585e-05
-1.15662e-05
-1.14717e-05
-1.13749e-05
-1.12759e-05
-1.11743e-05
-1.10693e-05
-1.096e-05
-1.0845e-05
-1.07223e-05
-1.05894e-05
-1.04434e-05
-1.02813e-05
-1.00996e-05
-9.8953e-06
-9.66428e-06
-9.40757e-06
-9.10051e-06
-8.93735e-06
-1.26769e-05
-1.26183e-05
-1.25516e-05
-1.24834e-05
-1.24128e-05
-1.23386e-05
-1.22609e-05
-1.21796e-05
-1.20951e-05
-1.20074e-05
-1.19167e-05
-1.18232e-05
-1.17271e-05
-1.16283e-05
-1.15268e-05
-1.14223e-05
-1.13143e-05
-1.1202e-05
-1.10841e-05
-1.0959e-05
-1.08245e-05
-1.06782e-05
-1.05171e-05
-1.03383e-05
-1.01385e-05
-9.91508e-06
-9.6646e-06
-9.38823e-06
-9.06482e-06
-8.86798e-06
-1.28814e-05
-1.28195e-05
-1.27491e-05
-1.26775e-05
-1.26035e-05
-1.25261e-05
-1.24451e-05
-1.23606e-05
-1.22728e-05
-1.21818e-05
-1.20877e-05
-1.19905e-05
-1.18903e-05
-1.17871e-05
-1.16805e-05
-1.15701e-05
-1.14553e-05
-1.13349e-05
-1.12077e-05
-1.10716e-05
-1.09246e-05
-1.0764e-05
-1.0587e-05
-1.03907e-05
-1.01723e-05
-9.92962e-06
-9.65987e-06
-9.36454e-06
-9.02585e-06
-8.79797e-06
-1.30882e-05
-1.30228e-05
-1.29488e-05
-1.28736e-05
-1.27963e-05
-1.27156e-05
-1.26314e-05
-1.25437e-05
-1.24527e-05
-1.23583e-05
-1.22606e-05
-1.21596e-05
-1.20552e-05
-1.19472e-05
-1.18352e-05
-1.17185e-05
-1.15962e-05
-1.14672e-05
-1.13298e-05
-1.1182e-05
-1.10215e-05
-1.08458e-05
-1.0652e-05
-1.04377e-05
-1.02004e-05
-9.9384e-06
-9.6497e-06
-9.33618e-06
-8.98326e-06
-8.72724e-06
-1.32962e-05
-1.32274e-05
-1.31496e-05
-1.30711e-05
-1.29904e-05
-1.29065e-05
-1.28191e-05
-1.27282e-05
-1.26338e-05
-1.2536e-05
-1.24347e-05
-1.23298e-05
-1.2221e-05
-1.21079e-05
-1.199e-05
-1.18665e-05
-1.17362e-05
-1.15978e-05
-1.14494e-05
-1.1289e-05
-1.11142e-05
-1.09225e-05
-1.07114e-05
-1.04786e-05
-1.02221e-05
-9.94088e-06
-9.63363e-06
-9.30268e-06
-8.9364e-06
-8.65512e-06
-1.35044e-05
-1.34322e-05
-1.33508e-05
-1.32688e-05
-1.31849e-05
-1.30978e-05
-1.30072e-05
-1.29131e-05
-1.28154e-05
-1.27142e-05
-1.26091e-05
-1.25e-05
-1.23865e-05
-1.22681e-05
-1.21439e-05
-1.20129e-05
-1.1874e-05
-1.17254e-05
-1.15653e-05
-1.13915e-05
-1.12016e-05
-1.09933e-05
-1.07642e-05
-1.05125e-05
-1.02368e-05
-9.93648e-06
-9.61118e-06
-9.26358e-06
-8.8847e-06
-8.58069e-06
-1.37117e-05
-1.3636e-05
-1.3551e-05
-1.34657e-05
-1.33786e-05
-1.32884e-05
-1.31947e-05
-1.30974e-05
-1.29965e-05
-1.28917e-05
-1.27828e-05
-1.26694e-05
-1.25509e-05
-1.24267e-05
-1.22957e-05
-1.21568e-05
-1.20085e-05
-1.18491e-05
-1.16764e-05
-1.14884e-05
-1.12826e-05
-1.10569e-05
-1.08095e-05
-1.05387e-05
-1.02437e-05
-9.92468e-06
-9.58189e-06
-9.21844e-06
-8.8277e-06
-8.50338e-06
-1.39168e-05
-1.38378e-05
-1.37494e-05
-1.36607e-05
-1.35706e-05
-1.34773e-05
-1.33806e-05
-1.32802e-05
-1.31759e-05
-1.30676e-05
-1.29547e-05
-1.28368e-05
-1.2713e-05
-1.25826e-05
-1.24443e-05
-1.22969e-05
-1.21386e-05
-1.19675e-05
-1.17814e-05
-1.15784e-05
-1.13561e-05
-1.11126e-05
-1.08463e-05
-1.05563e-05
-1.02423e-05
-9.90494e-06
-9.54529e-06
-9.16682e-06
-8.76489e-06
-8.42229e-06
-1.41185e-05
-1.40363e-05
-1.39444e-05
-1.38527e-05
-1.37596e-05
-1.36634e-05
-1.35636e-05
-1.34602e-05
-1.33526e-05
-1.32407e-05
-1.31236e-05
-1.30009e-05
-1.28716e-05
-1.27345e-05
-1.25885e-05
-1.24319e-05
-1.22628e-05
-1.20793e-05
-1.18792e-05
-1.16604e-05
-1.1421e-05
-1.11592e-05
-1.08739e-05
-1.05647e-05
-1.02319e-05
-9.87674e-06
-9.50096e-06
-9.10833e-06
-8.69594e-06
-8.3369e-06
-1.43154e-05
-1.42301e-05
-1.4135e-05
-1.40403e-05
-1.39443e-05
-1.38453e-05
-1.37427e-05
-1.36362e-05
-1.35254e-05
-1.34097e-05
-1.32884e-05
-1.31606e-05
-1.30254e-05
-1.28813e-05
-1.27269e-05
-1.25604e-05
-1.23799e-05
-1.21833e-05
-1.19684e-05
-1.17333e-05
-1.14762e-05
-1.11958e-05
-1.08914e-05
-1.05631e-05
-1.02119e-05
-9.83962e-06
-9.44849e-06
-9.04264e-06
-8.62079e-06
-8.24785e-06
-1.4506e-05
-1.44178e-05
-1.43196e-05
-1.42221e-05
-1.41234e-05
-1.40218e-05
-1.39164e-05
-1.38069e-05
-1.36928e-05
-1.35733e-05
-1.34476e-05
-1.33146e-05
-1.3173e-05
-1.30214e-05
-1.28581e-05
-1.26812e-05
-1.24885e-05
-1.22781e-05
-1.20478e-05
-1.17958e-05
-1.15206e-05
-1.12214e-05
-1.0898e-05
-1.05509e-05
-1.01818e-05
-9.79309e-06
-9.38746e-06
-8.96936e-06
-8.53898e-06
-8.15412e-06
-1.46888e-05
-1.45979e-05
-1.44968e-05
-1.43967e-05
-1.42956e-05
-1.41914e-05
-1.40834e-05
-1.3971e-05
-1.38535e-05
-1.37302e-05
-1.35998e-05
-1.34613e-05
-1.33131e-05
-1.31535e-05
-1.29808e-05
-1.27927e-05
-1.25873e-05
-1.23625e-05
-1.21162e-05
-1.18468e-05
-1.15533e-05
-1.12352e-05
-1.08929e-05
-1.05275e-05
-1.01411e-05
-9.73672e-06
-9.31752e-06
-8.88829e-06
-8.44999e-06
-8.05237e-06
-1.48624e-05
-1.47689e-05
-1.46652e-05
-1.45627e-05
-1.44592e-05
-1.43527e-05
-1.42421e-05
-1.41269e-05
-1.40061e-05
-1.38788e-05
-1.37437e-05
-1.35994e-05
-1.34441e-05
-1.32761e-05
-1.30934e-05
-1.28937e-05
-1.26749e-05
-1.2435e-05
-1.21723e-05
-1.18852e-05
-1.15733e-05
-1.12364e-05
-1.08754e-05
-1.04922e-05
-1.00893e-05
-9.6701e-06
-9.23837e-06
-8.79935e-06
-8.35321e-06
-7.9428e-06
-1.5025e-05
-1.49292e-05
-1.48231e-05
-1.47184e-05
-1.46129e-05
-1.45042e-05
-1.43912e-05
-1.42732e-05
-1.41491e-05
-1.40178e-05
-1.38777e-05
-1.37273e-05
-1.35646e-05
-1.33877e-05
-1.31944e-05
-1.29825e-05
-1.27499e-05
-1.24945e-05
-1.22149e-05
-1.191e-05
-1.15795e-05
-1.1224e-05
-1.08448e-05
-1.04444e-05
-1.00258e-05
-9.59281e-06
-9.14969e-06
-8.70192e-06
-8.24654e-06
-7.82754e-06
-1.51751e-05
-1.50772e-05
-1.4969e-05
-1.48624e-05
-1.4755e-05
-1.46443e-05
-1.45291e-05
-1.44084e-05
-1.4281e-05
-1.41455e-05
-1.40002e-05
-1.38434e-05
-1.3673e-05
-1.34867e-05
-1.32824e-05
-1.30578e-05
-1.28108e-05
-1.25396e-05
-1.22428e-05
-1.192e-05
-1.15711e-05
-1.11973e-05
-1.08006e-05
-1.03837e-05
-9.95025e-06
-9.5045e-06
-9.05115e-06
-8.59508e-06
-8.13139e-06
-7.70603e-06
-1.53109e-05
-1.52112e-05
-1.51013e-05
-1.4993e-05
-1.4884e-05
-1.47715e-05
-1.46541e-05
-1.45307e-05
-1.44e-05
-1.42603e-05
-1.41097e-05
-1.39462e-05
-1.37677e-05
-1.35717e-05
-1.33559e-05
-1.31182e-05
-1.28564e-05
-1.2569e-05
-1.22551e-05
-1.19143e-05
-1.15473e-05
-1.11557e-05
-1.0742e-05
-1.03095e-05
-9.86225e-06
-9.40489e-06
-8.94248e-06
-8.47768e-06
-8.00872e-06
-7.57698e-06
-1.54308e-05
-1.53296e-05
-1.52181e-05
-1.51085e-05
-1.49981e-05
-1.4884e-05
-1.47647e-05
-1.46388e-05
-1.45047e-05
-1.43606e-05
-1.42045e-05
-1.40341e-05
-1.38471e-05
-1.3641e-05
-1.34134e-05
-1.31622e-05
-1.28854e-05
-1.25817e-05
-1.22505e-05
-1.18919e-05
-1.15072e-05
-1.10984e-05
-1.06685e-05
-1.02214e-05
-9.76144e-06
-9.29373e-06
-8.82308e-06
-8.34921e-06
-7.8778e-06
-7.44029e-06
-1.55331e-05
-1.54307e-05
-1.5318e-05
-1.52073e-05
-1.50958e-05
-1.49803e-05
-1.48592e-05
-1.47308e-05
-1.45933e-05
-1.44449e-05
-1.42831e-05
-1.41055e-05
-1.39098e-05
-1.36932e-05
-1.34535e-05
-1.31884e-05
-1.28964e-05
-1.25764e-05
-1.2228e-05
-1.18521e-05
-1.14501e-05
-1.10249e-05
-1.05797e-05
-1.0119e-05
-9.64752e-06
-9.17063e-06
-8.69161e-06
-8.21104e-06
-7.73822e-06
-7.29527e-06
-1.56161e-05
-1.55128e-05
-1.53993e-05
-1.52878e-05
-1.51754e-05
-1.50588e-05
-1.49359e-05
-1.48051e-05
-1.46644e-05
-1.45114e-05
-1.43438e-05
-1.41589e-05
-1.39541e-05
-1.37268e-05
-1.34747e-05
-1.31957e-05
-1.28884e-05
-1.25521e-05
-1.21869e-05
-1.17939e-05
-1.13754e-05
-1.09345e-05
-1.04752e-05
-1.0002e-05
-9.52021e-06
-9.03518e-06
-8.54754e-06
-8.06342e-06
-7.58949e-06
-7.14166e-06
-1.5678e-05
-1.55742e-05
-1.54602e-05
-1.53483e-05
-1.52353e-05
-1.51177e-05
-1.49933e-05
-1.48602e-05
-1.47161e-05
-1.45586e-05
-1.4385e-05
-1.41926e-05
-1.39786e-05
-1.37404e-05
-1.34757e-05
-1.31827e-05
-1.28602e-05
-1.25078e-05
-1.21261e-05
-1.17168e-05
-1.12825e-05
-1.08269e-05
-1.03544e-05
-9.87e-06
-9.3792e-06
-8.88639e-06
-8.39198e-06
-7.90588e-06
-7.43114e-06
-6.97917e-06
-1.57174e-05
-1.56134e-05
-1.54992e-05
-1.53872e-05
-1.52739e-05
-1.51555e-05
-1.50298e-05
-1.48944e-05
-1.47471e-05
-1.45849e-05
-1.44053e-05
-1.42052e-05
-1.39818e-05
-1.37326e-05
-1.34553e-05
-1.31483e-05
-1.28107e-05
-1.24426e-05
-1.20449e-05
-1.162e-05
-1.11709e-05
-1.07017e-05
-1.02172e-05
-9.72283e-06
-9.22418e-06
-8.72369e-06
-8.22539e-06
-7.73786e-06
-7.26298e-06
-6.80758e-06
-1.57325e-05
-1.56287e-05
-1.55148e-05
-1.54029e-05
-1.52896e-05
-1.51707e-05
-1.50437e-05
-1.49063e-05
-1.47556e-05
-1.45889e-05
-1.44031e-05
-1.41952e-05
-1.39624e-05
-1.37021e-05
-1.34122e-05
-1.30914e-05
-1.2739e-05
-1.23557e-05
-1.19427e-05
-1.1503e-05
-1.104e-05
-1.05583e-05
-1.00632e-05
-9.56024e-06
-9.05458e-06
-8.54748e-06
-8.04737e-06
-7.55919e-06
-7.08493e-06
-6.62677e-06
-6.68249e-06
-6.33614e-06
-5.94351e-06
-5.50066e-06
-5.01306e-06
-4.48578e-06
-3.92713e-06
-3.34723e-06
-2.75681e-06
-2.17097e-06
-1.60262e-06
-1.06536e-06
-5.70931e-07
-1.29336e-07
2.5116e-07
5.65774e-07
8.12939e-07
9.94293e-07
1.11437e-06
1.18003e-06
1.19976e-06
1.18282e-06
1.13842e-06
1.07509e-06
1.00015e-06
9.19472e-07
8.37499e-07
7.57333e-07
6.80989e-07
6.09638e-07
5.43844e-07
4.83756e-07
4.29254e-07
3.80059e-07
3.35811e-07
2.96115e-07
2.60579e-07
2.28822e-07
2.00489e-07
1.7525e-07
1.52802e-07
1.32866e-07
1.1519e-07
9.95467e-08
8.57229e-08
7.35414e-08
6.28146e-08
5.34181e-08
4.51613e-08
3.7998e-08
3.1682e-08
2.6306e-08
2.14626e-08
1.75245e-08
1.37086e-08
1.09438e-08
7.69043e-09
5.90868e-09
2.70145e-09
3.11031e-09
-6.70913e-06
-6.36071e-06
-5.96873e-06
-5.52589e-06
-5.03823e-06
-4.51061e-06
-3.95139e-06
-3.37056e-06
-2.77939e-06
-2.19228e-06
-1.62256e-06
-1.08381e-06
-5.87775e-07
-1.44514e-07
2.37671e-07
5.53964e-07
8.02757e-07
9.85652e-07
1.10715e-06
1.17409e-06
1.19495e-06
1.17897e-06
1.13539e-06
1.07273e-06
9.9832e-07
9.18073e-07
8.36434e-07
7.56527e-07
6.80379e-07
6.09177e-07
5.43495e-07
4.83492e-07
4.29053e-07
3.79906e-07
3.35693e-07
2.96026e-07
2.60509e-07
2.28768e-07
2.00447e-07
1.75218e-07
1.52776e-07
1.32846e-07
1.15174e-07
9.95338e-08
8.57124e-08
7.3533e-08
6.28073e-08
5.34122e-08
4.51562e-08
3.79935e-08
3.16783e-08
2.63029e-08
2.14598e-08
1.75223e-08
1.37067e-08
1.0942e-08
7.68976e-09
5.9074e-09
2.70157e-09
3.10865e-09
-6.76184e-06
-6.40917e-06
-6.01847e-06
-5.57567e-06
-5.08789e-06
-4.55966e-06
-3.9994e-06
-3.41688e-06
-2.82399e-06
-2.23453e-06
-1.66215e-06
-1.12046e-06
-6.21268e-07
-1.74721e-07
2.10806e-07
5.30428e-07
7.82452e-07
9.68409e-07
1.09274e-06
1.16223e-06
1.18534e-06
1.17129e-06
1.12933e-06
1.068e-06
9.94668e-07
9.15276e-07
8.34305e-07
7.54913e-07
6.79159e-07
6.08255e-07
5.42798e-07
4.82963e-07
4.28651e-07
3.796e-07
3.35459e-07
2.95845e-07
2.60371e-07
2.28661e-07
2.00364e-07
1.75153e-07
1.52725e-07
1.32806e-07
1.15142e-07
9.95077e-08
8.56911e-08
7.35155e-08
6.27927e-08
5.34e-08
4.51458e-08
3.79845e-08
3.16705e-08
2.62963e-08
2.14544e-08
1.75176e-08
1.37033e-08
1.09385e-08
7.68834e-09
5.90485e-09
2.70161e-09
3.10556e-09
-6.83911e-06
-6.47997e-06
-6.09133e-06
-5.64859e-06
-5.16073e-06
-4.63169e-06
-4.07005e-06
-3.48512e-06
-2.88968e-06
-2.2969e-06
-1.72068e-06
-1.17472e-06
-6.70917e-07
-2.19556e-07
1.70884e-07
4.9541e-07
7.5221e-07
9.42701e-07
1.07123e-06
1.14452e-06
1.17097e-06
1.15979e-06
1.12025e-06
1.06092e-06
9.89198e-07
9.11084e-07
8.31114e-07
7.52494e-07
6.7733e-07
6.06873e-07
5.41753e-07
4.82171e-07
4.28049e-07
3.7914e-07
3.35107e-07
2.95575e-07
2.60163e-07
2.285e-07
2.00239e-07
1.75055e-07
1.52649e-07
1.32745e-07
1.15093e-07
9.94685e-08
8.56589e-08
7.3489e-08
6.27706e-08
5.33814e-08
4.513e-08
3.7971e-08
3.1659e-08
2.62863e-08
2.14462e-08
1.75105e-08
1.3698e-08
1.09331e-08
7.68613e-09
5.901e-09
2.7017e-09
3.10082e-09
-6.93872e-06
-6.57083e-06
-6.1853e-06
-5.74275e-06
-5.25496e-06
-4.72503e-06
-4.16186e-06
-3.57382e-06
-2.97522e-06
-2.37829e-06
-1.7972e-06
-1.24577e-06
-7.36035e-07
-2.78458e-07
1.18355e-07
4.49266e-07
7.123e-07
9.08728e-07
1.04277e-06
1.12105e-06
1.15191e-06
1.14454e-06
1.1082e-06
1.0515e-06
9.8192e-07
9.05505e-07
8.26864e-07
7.49272e-07
6.74893e-07
6.05031e-07
5.40359e-07
4.81114e-07
4.27245e-07
3.78527e-07
3.34638e-07
2.95215e-07
2.59885e-07
2.28286e-07
2.00073e-07
1.74925e-07
1.52546e-07
1.32664e-07
1.15028e-07
9.9416e-08
8.56161e-08
7.34536e-08
6.27411e-08
5.33566e-08
4.51089e-08
3.79529e-08
3.16435e-08
2.62731e-08
2.14352e-08
1.75009e-08
1.36909e-08
1.0926e-08
7.68313e-09
5.89585e-09
2.70183e-09
3.09443e-09
-7.05802e-06
-6.67872e-06
-6.29787e-06
-5.85576e-06
-5.36834e-06
-4.83758e-06
-4.2723e-06
-3.68184e-06
-3.07916e-06
-2.47734e-06
-1.89051e-06
-1.33258e-06
-8.15762e-07
-3.50722e-07
5.37887e-08
3.92443e-07
6.63066e-07
8.66745e-07
1.00754e-06
1.09196e-06
1.12825e-06
1.12557e-06
1.0932e-06
1.03978e-06
9.72848e-07
8.98546e-07
8.2156e-07
7.45248e-07
6.71848e-07
6.02728e-07
5.38616e-07
4.79793e-07
4.2624e-07
3.77761e-07
3.34052e-07
2.94765e-07
2.59539e-07
2.28018e-07
1.99864e-07
1.74763e-07
1.52418e-07
1.32563e-07
1.14947e-07
9.93504e-08
8.55624e-08
7.34094e-08
6.27042e-08
5.33256e-08
4.50825e-08
3.79303e-08
3.16242e-08
2.62565e-08
2.14215e-08
1.74888e-08
1.3682e-08
1.0917e-08
7.67933e-09
5.88941e-09
2.70198e-09
3.08639e-09
-7.19432e-06
-6.79978e-06
-6.42624e-06
-5.9848e-06
-5.49822e-06
-4.96692e-06
-4.3998e-06
-3.80658e-06
-3.19964e-06
-2.59246e-06
-1.99923e-06
-1.43396e-06
-9.09093e-07
-4.35521e-07
-2.21427e-08
3.25473e-07
6.04918e-07
8.17061e-07
9.65768e-07
1.0574e-06
1.10009e-06
1.10297e-06
1.0753e-06
1.02577e-06
9.62002e-07
8.90217e-07
8.15208e-07
7.40426e-07
6.68197e-07
5.99966e-07
5.36525e-07
4.78207e-07
4.25035e-07
3.76841e-07
3.33348e-07
2.94225e-07
2.59122e-07
2.27696e-07
1.99615e-07
1.74567e-07
1.52265e-07
1.32441e-07
1.1485e-07
9.92717e-08
8.54981e-08
7.33562e-08
6.26598e-08
5.32882e-08
4.50508e-08
3.79032e-08
3.16011e-08
2.62366e-08
2.14049e-08
1.74744e-08
1.36713e-08
1.09062e-08
7.67471e-09
5.88173e-09
2.70216e-09
3.07671e-09
-7.34662e-06
-6.92892e-06
-6.56778e-06
-6.1266e-06
-5.64162e-06
-5.11036e-06
-4.54187e-06
-3.94587e-06
-3.33467e-06
-2.72188e-06
-2.12181e-06
-1.54858e-06
-1.0149e-06
-5.31923e-07
-1.08682e-07
2.48958e-07
5.38322e-07
7.60025e-07
9.17709e-07
1.01755e-06
1.06757e-06
1.07682e-06
1.05455e-06
1.00951e-06
9.494e-07
8.80532e-07
8.07815e-07
7.34809e-07
6.63941e-07
5.96745e-07
5.34086e-07
4.76356e-07
4.23628e-07
3.75768e-07
3.32527e-07
2.93594e-07
2.58637e-07
2.27321e-07
1.99323e-07
1.7434e-07
1.52086e-07
1.32299e-07
1.14737e-07
9.918e-08
8.54231e-08
7.32943e-08
6.26081e-08
5.32447e-08
4.50139e-08
3.78715e-08
3.15741e-08
2.62134e-08
2.13857e-08
1.74575e-08
1.36588e-08
1.08936e-08
7.66925e-09
5.8728e-09
2.70235e-09
3.0654e-09
-7.51577e-06
-7.06142e-06
-6.71951e-06
-6.27768e-06
-5.79541e-06
-5.26513e-06
-4.69578e-06
-4.09735e-06
-3.48209e-06
-2.86368e-06