/*--------------------------------*- C++ -*----------------------------------*\
| =========                 |                                                 |
| \\      /  F ield         | foam-extend: Open Source CFD                    |
|  \\    /   O peration     | Version:     4.0                                |
|   \\  /    A nd           | Web:         http://www.foam-extend.org         |
|    \\/     M anipulation  |                                                 |
\*---------------------------------------------------------------------------*/
FoamFile
{
    version     2.0;
    format      ascii;
    class       surfaceScalarField;
    location    "45";
    object      phi;
}
// * * * * * * * * * * * * * * * * * * * * * * * * * * * * * * * * * * * * * //

dimensions      [0 3 -1 0 0 0 0];

internalField   nonuniform List<scalar> 
71520
(
-2.56893e-10
2.55033e-10
1.85968e-12
-1.03215e-09
7.69613e-10
5.6476e-12
-2.36105e-09
1.31917e-09
9.72641e-12
-4.27831e-09
1.90317e-09
1.40901e-11
-6.81766e-09
2.52062e-09
1.87276e-11
-1.00114e-08
3.17009e-09
2.36229e-11
-1.38898e-08
3.8497e-09
2.8754e-11
-1.84809e-08
4.557e-09
3.40928e-11
-2.38095e-08
5.28897e-09
3.9604e-11
-2.98966e-08
6.04188e-09
4.52452e-11
-3.67588e-08
6.81119e-09
5.09657e-11
-4.44069e-08
7.59142e-09
5.67062e-11
-5.28452e-08
8.37593e-09
6.2398e-11
-6.207e-08
9.15676e-09
6.79621e-11
-7.20676e-08
9.92438e-09
7.3309e-11
-8.28134e-08
1.06674e-08
7.83369e-11
-9.42682e-08
1.1372e-08
8.29308e-11
-1.06377e-07
1.20216e-08
8.69598e-11
-1.19063e-07
1.25962e-08
9.02751e-11
-1.32228e-07
1.30716e-08
9.2707e-11
-1.4574e-07
1.34187e-08
9.40606e-11
-1.59437e-07
1.36023e-08
9.41115e-11
-1.7311e-07
1.35803e-08
9.26019e-11
-1.86502e-07
1.33027e-08
8.92373e-11
-1.99296e-07
1.27109e-08
8.36812e-11
-2.11108e-07
1.17364e-08
7.55538e-11
-2.21474e-07
1.03013e-08
6.44466e-11
-2.29845e-07
8.32144e-09
5.00191e-11
-2.35611e-07
5.73407e-09
3.1934e-11
2.322e-09
-2.37943e-07
9.30984e-12
-2.53136e-10
5.08169e-10
-1.01725e-09
1.53372e-09
-2.32728e-09
2.62921e-09
-4.21763e-09
3.79352e-09
-6.72168e-09
5.02468e-09
-9.87139e-09
6.3198e-09
-1.36967e-08
7.67504e-09
-1.82252e-08
9.0855e-09
-2.34813e-08
1.0545e-08
-2.94855e-08
1.20461e-08
-3.62537e-08
1.35794e-08
-4.37963e-08
1.5134e-08
-5.21167e-08
1.66963e-08
-6.12101e-08
1.82502e-08
-7.10623e-08
1.97765e-08
-8.16469e-08
2.1252e-08
-9.29239e-08
2.26489e-08
-1.04836e-07
2.39337e-08
-1.17306e-07
2.5066e-08
-1.30231e-07
2.59971e-08
-1.43481e-07
2.66681e-08
-1.56887e-07
2.70082e-08
-1.70239e-07
2.69328e-08
-1.83278e-07
2.63416e-08
-1.95684e-07
2.5117e-08
-2.0707e-07
2.31218e-08
-2.16969e-07
2.02004e-08
-2.24835e-07
1.61881e-08
-2.30025e-07
1.09242e-08
4.03134e-09
-2.31735e-07
-2.45717e-10
7.53886e-10
-9.87789e-10
2.2758e-09
-2.26051e-09
3.90192e-09
-4.0976e-09
5.63061e-09
-6.53179e-09
7.45887e-09
-9.59433e-09
9.38234e-09
-1.33145e-08
1.13952e-08
-1.7719e-08
1.349e-08
-2.28313e-08
1.56574e-08
-2.8671e-08
1.78858e-08
-3.5253e-08
2.01614e-08
-4.25861e-08
2.24671e-08
-5.06724e-08
2.47825e-08
-5.95053e-08
2.70832e-08
-6.90685e-08
2.93397e-08
-7.93334e-08
3.15169e-08
-9.02572e-08
3.35727e-08
-1.01779e-07
3.5456e-08
-1.13819e-07
3.71058e-08
-1.26271e-07
3.84483e-08
-1.38997e-07
3.93945e-08
-1.51826e-07
3.98374e-08
-1.64543e-07
3.96497e-08
-1.76882e-07
3.86803e-08
-1.88517e-07
3.67522e-08
-1.99055e-07
3.36601e-08
-2.08026e-07
2.91711e-08
-2.14881e-07
2.30431e-08
-2.18956e-07
1.49995e-08
4.52067e-09
-2.19445e-07
-2.3484e-10
9.88726e-10
-9.44578e-10
2.98553e-09
-2.1625e-09
5.11985e-09
-3.92135e-09
7.38945e-09
-6.25281e-09
9.79034e-09
-9.1871e-09
1.23166e-08
-1.27524e-08
1.49605e-08
-1.69741e-08
1.77117e-08
-2.18746e-08
2.05578e-08
-2.74718e-08
2.34831e-08
-3.37789e-08
2.64685e-08
-4.08028e-08
2.94911e-08
-4.85433e-08
3.2523e-08
-5.69913e-08
3.55312e-08
-6.61274e-08
3.84758e-08
-7.59197e-08
4.13092e-08
-8.63212e-08
4.39741e-08
-9.72671e-08
4.64019e-08
-1.08671e-07
4.85099e-08
-1.20421e-07
5.01985e-08
-1.32375e-07
5.13481e-08
-1.44352e-07
5.18148e-08
-1.5613e-07
5.14279e-08
-1.67435e-07
4.99851e-08
-1.77933e-07
4.72498e-08
-1.87221e-07
4.29481e-08
-1.94825e-07
3.67754e-08
-2.00182e-07
2.83995e-08
-2.02622e-07
1.744e-08
3.22837e-09
-2.0133e-07
-2.20801e-10
1.20953e-09
-8.88759e-10
3.65349e-09
-2.03583e-09
6.26691e-09
-3.69338e-09
9.04701e-09
-5.89176e-09
1.19887e-08
-8.65973e-09
1.50846e-08
-1.2024e-08
1.83247e-08
-1.60083e-08
2.16961e-08
-2.06333e-08
2.51828e-08
-2.59149e-08
2.87647e-08
-3.1864e-08
3.24176e-08
-3.8485e-08
3.6112e-08
-4.57746e-08
3.98127e-08
-5.37205e-08
4.34771e-08
-6.22992e-08
4.70545e-08
-7.14744e-08
5.04843e-08
-8.11938e-08
5.36936e-08
-9.13869e-08
5.6595e-08
-1.01961e-07
5.90836e-08
-1.12795e-07
6.10333e-08
-1.2374e-07
6.22928e-08
-1.34606e-07
6.26808e-08
-1.4516e-07
6.1982e-08
-1.55118e-07
5.99429e-08
-1.64135e-07
5.62663e-08
-1.71799e-07
5.06121e-08
-1.77625e-07
4.2602e-08
-1.81033e-07
3.18069e-08
-1.81353e-07
1.77601e-08
-3.67569e-10
-1.77757e-07
-2.03973e-10
1.4135e-09
-8.21786e-10
4.27131e-09
-1.88371e-09
7.32884e-09
-3.41942e-09
1.05827e-08
-5.45752e-09
1.40268e-08
-8.02496e-09
1.7652e-08
-1.11465e-08
2.14462e-08
-1.4844e-08
2.53936e-08
-1.91357e-08
2.94744e-08
-2.4035e-08
3.36641e-08
-2.95502e-08
3.79327e-08
-3.56823e-08
4.22441e-08
-4.24245e-08
4.65549e-08
-4.97602e-08
5.08128e-08
-5.76613e-08
5.49556e-08
-6.60858e-08
5.89088e-08
-7.49754e-08
6.25832e-08
-8.42524e-08
6.5872e-08
-9.38157e-08
6.86469e-08
-1.03537e-07
7.07544e-08
-1.13254e-07
7.20105e-08
-1.22769e-07
7.21957e-08
-1.31837e-07
7.10496e-08
-1.4016e-07
6.82664e-08
-1.47383e-07
6.34892e-08
-1.53083e-07
5.63116e-08
-1.56756e-07
4.62755e-08
-1.57808e-07
3.2859e-08
-1.55573e-07
1.55243e-08
-6.73893e-09
-1.49201e-07
-1.84793e-10
1.59829e-09
-7.45363e-10
4.83188e-09
-1.70996e-09
8.29344e-09
-3.1062e-09
1.1979e-08
-4.96056e-09
1.58812e-08
-7.29783e-09
1.99893e-08
-1.01404e-08
2.42888e-08
-1.35077e-08
2.87609e-08
-1.74152e-08
3.33819e-08
-2.18735e-08
3.81223e-08
-2.68872e-08
4.29464e-08
-3.24538e-08
4.78108e-08
-3.85622e-08
5.26632e-08
-4.51908e-08
5.74414e-08
-5.2306e-08
6.20708e-08
-5.98595e-08
6.64623e-08
-6.77858e-08
7.05095e-08
-7.5999e-08
7.40851e-08
-8.4389e-08
7.70369e-08
-9.2817e-08
7.91824e-08
-1.01111e-07
8.03043e-08
-1.09059e-07
8.01439e-08
-1.16405e-07
7.83952e-08
-1.22838e-07
7.46997e-08
-1.2799e-07
6.8641e-08
-1.3142e-07
5.97423e-08
-1.32611e-07
4.74663e-08
-1.30956e-07
3.12038e-08
-1.25793e-07
1.03611e-08
-1.63159e-08
-1.16216e-07
-1.63749e-10
1.76204e-09
-6.61389e-10
5.32952e-09
-1.51881e-09
9.15086e-09
-2.76122e-09
1.32214e-08
-4.4126e-09
1.75326e-08
-6.49514e-09
2.20718e-08
-9.02855e-09
2.68222e-08
-1.20293e-08
3.17616e-08
-1.55096e-08
3.68622e-08
-1.94766e-08
4.20893e-08
-2.39311e-08
4.74009e-08
-2.88661e-08
5.27459e-08
-3.42658e-08
5.80629e-08
-4.0103e-08
6.32786e-08
-4.63378e-08
6.83056e-08
-5.29148e-08
7.30394e-08
-5.97606e-08
7.73553e-08
-6.67802e-08
8.11047e-08
-7.38534e-08
8.41101e-08
-8.08306e-08
8.61596e-08
-8.75276e-08
8.70013e-08
-9.37203e-08
8.63367e-08
-9.91391e-08
8.38139e-08
-1.03461e-07
7.90212e-08
-1.063e-07
7.14804e-08
-1.07201e-07
6.06432e-08
-1.05629e-07
4.58946e-08
-1.00971e-07
2.6546e-08
-9.25805e-08
1.9701e-09
-2.94663e-08
-7.94301e-08
-1.41359e-10
1.9034e-09
-5.71887e-10
5.76004e-09
-1.31479e-09
9.89376e-09
-2.3925e-09
1.42991e-08
-3.82615e-09
1.89662e-08
-5.63492e-09
2.38806e-08
-7.83536e-09
2.90227e-08
-1.04405e-08
3.43668e-08
-1.34591e-08
3.98807e-08
-1.68942e-08
4.55244e-08
-2.07421e-08
5.12489e-08
-2.49912e-08
5.69949e-08
-2.96198e-08
6.26916e-08
-3.4595e-08
6.82538e-08
-3.98699e-08
7.35805e-08
-4.53813e-08
7.85508e-08
-5.10471e-08
8.30211e-08
-5.67625e-08
8.68202e-08
-6.23969e-08
8.97445e-08
-6.77889e-08
9.15516e-08
-7.27422e-08
9.19546e-08
-7.70203e-08
9.06148e-08
-8.03395e-08
8.71331e-08
-8.23617e-08
8.10434e-08
-8.26869e-08
7.18056e-08
-8.08443e-08
5.88007e-08
-7.62827e-08
4.13329e-08
-6.83715e-08
1.86349e-08
-5.65325e-08
-9.86889e-09
-4.63973e-08
-3.96015e-08
-1.1815e-10
2.02155e-09
-4.78925e-10
6.12082e-09
-1.10253e-09
1.05174e-08
-2.00828e-09
1.52048e-08
-3.21407e-09
2.0172e-08
-4.7357e-09
2.54022e-08
-6.58613e-09
3.08731e-08
-8.77464e-09
3.65553e-08
-1.13057e-08
4.24118e-08
-1.41781e-08
4.83967e-08
-1.73831e-08
5.44539e-08
-2.09038e-08
6.05156e-08
-2.47125e-08
6.65003e-08
-2.87697e-08
7.2311e-08
-3.30209e-08
7.78317e-08
-3.73948e-08
8.29247e-08
-4.17998e-08
8.74261e-08
-4.61211e-08
9.11415e-08
-5.02168e-08
9.38402e-08
-5.39142e-08
9.5249e-08
-5.70047e-08
9.50451e-08
-5.9238e-08
9.28481e-08
-6.03162e-08
8.82114e-08
-5.98872e-08
8.06144e-08
-5.75373e-08
6.94557e-08
-5.2785e-08
5.40484e-08
-4.507e-08
3.36179e-08
-3.37074e-08
7.27237e-09
-1.80527e-08
-2.55236e-08
-6.63533e-08
1.9033e-09
-9.46436e-11
2.11619e-09
-3.84542e-10
6.41072e-09
-8.866e-10
1.10194e-08
-1.6167e-09
1.59349e-08
-2.58913e-09
2.11444e-08
-3.81593e-09
2.6629e-08
-5.30608e-09
3.23633e-08
-7.06459e-09
3.83138e-08
-9.09143e-09
4.44387e-08
-1.13803e-08
5.06856e-08
-1.39174e-08
5.6991e-08
-1.66796e-08
6.32778e-08
-1.96331e-08
6.94538e-08
-2.27311e-08
7.54089e-08
-2.59111e-08
8.10118e-08
-2.9093e-08
8.61066e-08
-3.21756e-08
9.05086e-08
-3.50336e-08
9.39995e-08
-3.75142e-08
9.63208e-08
-3.94326e-08
9.71673e-08
-4.05672e-08
9.61797e-08
-4.06544e-08
9.29353e-08
-3.93827e-08
8.69397e-08
-3.63865e-08
7.76181e-08
-3.12395e-08
6.43087e-08
-2.34496e-08
4.62585e-08
-1.24683e-08
2.26366e-08
2.26004e-09
-7.45598e-09
2.19534e-08
-4.52169e-08
-9.10486e-08
4.66487e-08
-7.13286e-11
2.18752e-09
-2.90666e-10
6.63006e-09
-6.71352e-10
1.14001e-08
-1.22553e-09
1.64891e-08
-1.96356e-09
2.18824e-08
-2.89333e-09
2.75588e-08
-4.01945e-09
3.34894e-08
-5.34228e-09
3.96367e-08
-6.8568e-09
4.59532e-08
-8.55138e-09
5.23802e-08
-1.04063e-08
5.88459e-08
-1.23924e-08
6.52639e-08
-1.44689e-08
7.15303e-08
-1.65812e-08
7.75212e-08
-1.86586e-08
8.30891e-08
-2.06114e-08
8.80594e-08
-2.2329e-08
9.22262e-08
-2.36755e-08
9.53461e-08
-2.44866e-08
9.71319e-08
-2.45653e-08
9.7246e-08
-2.36773e-08
9.52917e-08
-2.15459e-08
9.08039e-08
-1.78466e-08
8.32404e-08
-1.22012e-08
7.19728e-08
-4.17224e-09
5.62797e-08
6.7426e-09
3.53437e-08
2.11208e-08
8.25844e-09
3.964e-08
-2.59752e-08
6.28927e-08
-6.84697e-08
-1.2004e-07
9.1884e-08
-4.86378e-11
2.23616e-09
-1.99021e-10
6.78044e-09
-4.60701e-10
1.16618e-08
-8.41829e-10
1.68702e-08
-1.34855e-09
2.23892e-08
-1.98425e-09
2.81945e-08
-2.74878e-09
3.42539e-08
-3.63743e-09
4.05253e-08
-4.63984e-09
4.69556e-08
-5.73863e-09
5.3479e-08
-6.90802e-09
6.00153e-08
-8.11212e-09
6.6468e-08
-9.30265e-09
7.27209e-08
-1.04168e-08
7.86354e-08
-1.1375e-08
8.40472e-08
-1.20786e-08
8.87631e-08
-1.24069e-08
9.25545e-08
-1.2213e-08
9.51522e-08
-1.13213e-08
9.62402e-08
-9.52284e-09
9.54475e-08
-6.57078e-09
9.23396e-08
-2.17586e-09
8.6409e-08
3.99867e-09
7.70658e-08
1.2342e-08
6.36294e-08
2.33014e-08
4.53204e-08
3.73874e-08
2.12577e-08
5.51813e-08
-9.53551e-09
7.73335e-08
-4.81274e-08
1.04503e-07
-9.56394e-08
-1.53161e-07
1.37625e-07
-2.69289e-11
2.26309e-09
-1.11053e-10
6.86456e-09
-2.57971e-10
1.18087e-08
-4.71646e-10
1.70839e-08
-7.53768e-10
2.26713e-08
-1.10299e-09
2.85437e-08
-1.51402e-09
3.46649e-08
-1.97661e-09
4.09879e-08
-2.47464e-09
4.74537e-08
-2.98495e-09
5.39893e-08
-3.4753e-09
6.05057e-08
-3.90216e-09
6.68949e-08
-4.20912e-09
7.30278e-08
-4.32505e-09
7.87513e-08
-4.16184e-09
8.3884e-08
-3.61138e-09
8.82126e-08
-2.54243e-09
9.14855e-08
-7.97911e-10
9.34076e-08
1.80941e-09
9.36328e-08
5.50061e-09
9.17563e-08
1.05346e-08
8.73056e-08
1.72126e-08
7.97311e-08
2.58822e-08
6.83962e-08
3.69426e-08
5.2569e-08
5.08487e-08
3.14142e-08
6.81161e-08
3.99029e-09
8.93237e-08
-3.07432e-08
1.15117e-07
-7.39205e-08
1.4618e-07
-1.26703e-07
-1.9037e-07
1.83389e-07
-6.49638e-12
2.26958e-09
-2.79774e-11
6.88604e-09
-6.59348e-11
1.18467e-08
-1.19939e-10
1.71379e-08
-1.87023e-10
2.27384e-08
-2.60927e-10
2.86176e-08
-3.31183e-10
3.47352e-08
-3.82039e-10
4.10388e-08
-3.91161e-10
4.74628e-08
-3.28222e-10
5.39264e-08
-1.53368e-10
6.03308e-08
1.84367e-10
6.65571e-08
7.48988e-10
7.24632e-08
1.61974e-09
7.78806e-08
2.89357e-09
8.26102e-08
4.68842e-09
8.64178e-08
7.14579e-09
8.90282e-08
1.04341e-08
9.01193e-08
1.4752e-08
8.9315e-08
2.03322e-08
8.61761e-08
2.74452e-08
8.01926e-08
3.64035e-08
7.07728e-08
4.7565e-08
5.72347e-08
6.13372e-08
3.87967e-08
7.81812e-08
1.45703e-08
9.86135e-08
-1.6442e-08
1.2321e-07
-5.53396e-08
1.52611e-07
-1.03321e-07
1.87502e-07
-1.61594e-07
-2.31592e-07
2.28723e-07
1.22617e-11
2.25732e-09
4.87735e-11
6.84953e-09
1.12314e-10
1.17831e-08
2.07895e-10
1.70423e-08
3.43386e-10
2.26029e-08
5.303e-10
2.84307e-08
7.8472e-10
3.44808e-08
1.1284e-09
4.06951e-08
1.59007e-09
4.70011e-08
2.20691e-09
5.33095e-08
3.02596e-09
5.95118e-08
4.10586e-09
6.54772e-08
5.51879e-09
7.10503e-08
7.35279e-09
7.60465e-08
9.71446e-09
8.02486e-08
1.27317e-08
8.34005e-08
1.65566e-08
8.52033e-08
2.13684e-08
8.53076e-08
2.7377e-08
8.33064e-08
3.48265e-08
7.87266e-08
4.39988e-08
7.10203e-08
5.52168e-08
5.95548e-08
6.88479e-08
4.36036e-08
8.53069e-08
2.23377e-08
1.05059e-07
-5.18134e-09
1.28618e-07
-4.00016e-08
1.56556e-07
-8.32773e-08
1.89501e-07
-1.36266e-07
2.28131e-07
-2.00225e-07
-2.76716e-07
2.73255e-07
2.92164e-11
2.22811e-09
1.18609e-10
6.76014e-09
2.75333e-10
1.16264e-08
5.09109e-10
1.68086e-08
8.32881e-10
2.22791e-08
1.26361e-09
2.8e-08
1.82324e-09
3.39211e-08
2.53977e-09
3.99785e-08
3.44857e-09
4.60923e-08
4.59377e-09
5.21643e-08
6.0299e-09
5.80756e-08
7.82356e-09
6.36836e-08
1.00554e-08
6.88184e-08
1.28228e-08
7.32792e-08
1.62419e-08
7.68294e-08
2.04509e-08
7.91915e-08
2.56122e-08
8.0042e-08
3.1916e-08
7.90037e-08
3.95836e-08
7.56388e-08
4.88703e-08
6.94399e-08
6.00687e-08
5.98219e-08
7.35119e-08
4.61116e-08
8.95759e-08
2.75397e-08
1.08682e-07
3.23202e-09
1.31295e-07
-2.77944e-08
1.57927e-07
-6.66343e-08
1.8914e-07
-1.1449e-07
2.25546e-07
-1.72671e-07
2.67803e-07
-2.42482e-07
-3.25604e-07
3.16691e-07
4.43291e-11
2.18378e-09
1.81298e-10
6.62317e-09
4.22485e-10
1.13852e-08
7.82407e-10
1.64486e-08
1.27919e-09
2.17823e-08
1.93537e-09
2.73438e-08
2.77888e-09
3.30776e-08
3.84416e-09
3.89133e-08
5.17341e-09
4.47631e-08
6.81803e-09
5.05197e-08
8.84027e-09
5.60534e-08
1.13149e-08
6.12089e-08
1.43315e-08
6.58018e-08
1.79968e-08
6.9614e-08
2.24368e-08
7.23894e-08
2.77997e-08
7.38286e-08
3.42589e-08
7.35828e-08
4.20155e-08
7.12471e-08
5.1302e-08
6.63523e-08
6.23846e-08
5.83573e-08
7.55668e-08
4.66397e-08
9.11911e-08
3.04873e-08
1.09641e-07
9.08951e-09
1.31342e-07
-1.84686e-08
1.56759e-07
-5.3211e-08
1.86398e-07
-9.62738e-08
2.20807e-07
-1.48899e-07
2.60573e-07
-2.12437e-07
3.06326e-07
-2.88235e-07
-3.7809e-07
3.58812e-07
5.75925e-11
2.12619e-09
2.36797e-10
6.44397e-09
5.53633e-10
1.10684e-08
1.02745e-09
1.59748e-08
1.68161e-09
2.11282e-08
2.54434e-09
2.64811e-08
3.64967e-09
3.19723e-08
5.03861e-09
3.75243e-08
6.76037e-09
4.30413e-08
8.87383e-09
4.84062e-08
1.14492e-08
5.34781e-08
1.45697e-08
5.80884e-08
1.8334e-08
6.20375e-08
2.28584e-08
6.50896e-08
2.82789e-08
6.69689e-08
3.47542e-08
6.73533e-08
4.24683e-08
6.58687e-08
5.16337e-08
6.20817e-08
6.24939e-08
5.54922e-08
7.53262e-08
4.5525e-08
9.04442e-08
3.15216e-08
1.082e-07
1.27318e-08
1.28982e-07
-1.16932e-08
1.53219e-07
-4.27056e-08
1.81375e-07
-8.13663e-08
2.13946e-07
-1.28845e-07
2.5146e-07
-1.86414e-07
2.94473e-07
-2.5545e-07
3.43574e-07
-3.37335e-07
-4.33978e-07
3.99462e-07
6.908e-11
2.05711e-09
2.85369e-10
6.22768e-09
6.69308e-10
1.06844e-08
1.24509e-09
1.5399e-08
2.04136e-09
2.03319e-08
3.09206e-09
2.54304e-08
4.43744e-09
3.06269e-08
6.12515e-09
3.58366e-08
8.21158e-09
4.09549e-08
1.07632e-08
4.58546e-08
1.38585e-08
5.03828e-08
1.75893e-08
5.43576e-08
2.20636e-08
5.75631e-08
2.74074e-08
5.97458e-08
3.3767e-08
6.06093e-08
4.13116e-08
5.98087e-08
5.02364e-08
5.69439e-08
6.0765e-08
5.15531e-08
7.3152e-08
4.31051e-08
8.76857e-08
3.09913e-08
1.0469e-07
1.45176e-08
1.24524e-07
-7.10216e-09
1.47582e-07
-3.47515e-08
1.74294e-07
-6.94171e-08
2.05118e-07
-1.1219e-07
2.40538e-07
-1.64266e-07
2.81057e-07
-2.26932e-07
3.2719e-07
-3.01584e-07
3.79469e-07
-3.89613e-07
-4.93045e-07
4.38535e-07
7.89332e-11
1.97817e-09
3.27543e-10
5.97907e-09
7.70657e-10
1.02413e-08
1.43729e-09
1.47324e-08
2.36137e-09
1.94078e-08
3.58261e-09
2.42092e-08
5.14749e-09
2.9062e-08
7.11043e-09
3.38737e-08
9.53506e-09
3.85303e-08
1.24957e-08
4.28939e-08
1.6079e-08
4.67996e-08
2.03859e-08
5.00506e-08
2.55339e-08
5.24151e-08
3.16588e-08
5.36209e-08
3.89173e-08
5.33508e-08
4.74896e-08
5.12364e-08
5.7582e-08
4.68515e-08
6.94294e-08
3.97058e-08
8.32977e-08
2.92368e-08
9.94859e-08
1.48031e-08
1.18327e-07
-4.32338e-09
1.40186e-07
-2.89618e-08
1.65463e-07
-6.00284e-08
1.94586e-07
-9.85396e-08
2.28005e-07
-1.45609e-07
2.66185e-07
-2.02446e-07
3.09597e-07
-2.70344e-07
3.58707e-07
-3.50694e-07
4.13971e-07
-4.44878e-07
-5.5503e-07
4.75956e-07
8.73529e-11
1.89082e-09
3.64085e-10
5.70233e-09
8.59356e-10
9.74606e-09
1.60697e-09
1.39848e-08
2.64611e-09
1.83687e-08
4.02226e-09
2.2833e-08
5.78819e-09
2.72961e-08
8.00511e-09
3.16568e-08
1.0744e-08
3.57914e-08
1.4087e-08
3.95509e-08
1.81295e-08
4.27571e-08
2.29815e-08
4.51986e-08
2.87699e-08
4.66266e-08
3.56408e-08
4.67501e-08
4.37615e-08
4.52301e-08
5.33233e-08
4.16746e-08
6.45438e-08
3.5631e-08
7.76695e-08
2.65801e-08
9.29772e-08
1.3929e-08
1.10776e-07
-2.99593e-09
1.31407e-07
-2.49542e-08
1.55242e-07
-5.27965e-08
1.82682e-07
-8.74683e-08
2.14151e-07
-1.30009e-07
2.50087e-07
-1.81546e-07
2.9093e-07
-2.43289e-07
3.37108e-07
-3.16522e-07
3.89032e-07
-4.02617e-07
4.47059e-07
-5.02905e-07
-6.19631e-07
5.1166e-07
9.45868e-11
1.79623e-09
3.95948e-10
5.40097e-09
9.37508e-10
9.2045e-09
1.7578e-09
1.31645e-08
2.90126e-09
1.72252e-08
4.4191e-09
2.13152e-08
6.37038e-09
2.53448e-08
8.82316e-09
2.9204e-08
1.18558e-08
3.27587e-08
1.55586e-08
3.58481e-08
2.00354e-08
3.82803e-08
2.54056e-08
3.98285e-08
3.18059e-08
4.02264e-08
3.93925e-08
3.91634e-08
4.83438e-08
3.62788e-08
5.88623e-08
3.11561e-08
7.1177e-08
2.33162e-08
8.55456e-08
1.22115e-08
1.02256e-07
-2.78137e-09
1.21626e-07
-2.2366e-08
1.44004e-07
-4.73322e-08
1.69767e-07
-7.85594e-08
1.99315e-07
-1.17017e-07
2.33065e-07
-1.63758e-07
2.71435e-07
-2.19916e-07
3.14833e-07
-2.86687e-07
3.63636e-07
-3.65324e-07
4.1818e-07
-4.57161e-07
4.78713e-07
-5.63438e-07
-6.86499e-07
5.4558e-07
1.00916e-10
1.69532e-09
4.24216e-10
5.07767e-09
1.00752e-09
8.62119e-09
1.89404e-09
1.2278e-08
3.13338e-09
1.59859e-08
4.7825e-09
1.9666e-08
6.90673e-09
2.32206e-08
9.581e-09
2.65297e-08
1.28912e-08
2.94486e-08
1.69356e-08
3.18037e-08
2.1827e-08
3.33889e-08
2.76939e-08
3.39615e-08
3.46831e-08
3.32372e-08
4.29613e-08
3.08852e-08
5.27179e-08
2.65223e-08
6.41666e-08
1.97074e-08
7.75479e-08
9.9349e-09
9.31306e-08
-3.37124e-09
1.11212e-07
-2.08629e-08
1.32119e-07
-4.32729e-08
1.56206e-07
-7.14194e-08
1.83853e-07
-1.06206e-07
2.15455e-07
-1.48619e-07
2.51416e-07
-1.99719e-07
2.92129e-07
-2.6063e-07
3.3796e-07
-3.32518e-07
3.89222e-07
-4.16586e-07
4.46158e-07
-5.14097e-07
5.08901e-07
-6.26181e-07
-7.55223e-07
5.77625e-07
1.06639e-10
1.58868e-09
4.50054e-10
4.73426e-09
1.07198e-09
7.99926e-09
2.02024e-09
1.13297e-08
3.34958e-09
1.46565e-08
5.12265e-09
1.7893e-08
7.41103e-09
2.09322e-08
1.02965e-08
2.36442e-08
1.38725e-08
2.58726e-08
1.82457e-08
2.74305e-08
2.35373e-08
2.80973e-08
2.98856e-08
2.76133e-08
3.74471e-08
2.56757e-08
4.63994e-08
2.19329e-08
5.69428e-08
1.5979e-08
6.93022e-08
7.34793e-09
8.37294e-08
-4.49223e-09
1.00503e-07
-2.01449e-08
1.1993e-07
-4.02898e-08
1.42345e-07
-6.56877e-08
1.68106e-07
-9.71811e-08
1.97593e-07
-1.35693e-07
2.31193e-07
-1.82219e-07
2.6929e-07
-2.37816e-07
3.12245e-07
-3.03585e-07
3.6037e-07
-3.80643e-07
4.13901e-07
-4.70117e-07
4.7296e-07
-5.73156e-07
5.37573e-07
-6.90794e-07
-8.25314e-07
6.07664e-07
1.12061e-10
1.47662e-09
4.74645e-10
4.37167e-09
1.13353e-09
7.34037e-09
2.14109e-09
1.03222e-08
3.55716e-09
1.32405e-08
5.45e-09
1.60001e-08
7.89748e-09
1.84847e-08
1.09882e-08
2.05534e-08
1.48233e-08
2.20375e-08
1.95174e-08
2.27364e-08
2.52008e-08
2.24138e-08
3.2021e-08
2.0793e-08
4.0145e-08
1.75517e-08
4.97606e-08
1.23172e-08
6.10791e-08
4.66045e-09
7.43364e-08
-5.90941e-09
8.97944e-08
-1.99502e-08
1.07742e-07
-3.80922e-08
1.28494e-07
-6.1042e-08
1.52391e-07
-8.95848e-08
1.79794e-07
-1.24584e-07
2.11076e-07
-1.66975e-07
2.46612e-07
-2.17755e-07
2.86761e-07
-2.77965e-07
3.31843e-07
-3.48666e-07
3.82104e-07
-4.30904e-07
4.37686e-07
-5.25699e-07
4.98559e-07
-6.3403e-07
5.64659e-07
-7.56894e-07
-8.96163e-07
6.35508e-07
1.17476e-10
1.35914e-09
4.9914e-10
3.99001e-09
1.19475e-09
6.64476e-09
2.26116e-09
9.25576e-09
3.76321e-09
1.17384e-08
5.7748e-09
1.39885e-08
8.37997e-09
1.58796e-08
1.16743e-08
1.72591e-08
1.57663e-08
1.79455e-08
2.07788e-08
1.77239e-08
2.68511e-08
1.63416e-08
3.414e-08
1.3504e-08
4.28225e-08
8.86926e-09
5.3097e-08
2.04274e-09
6.51851e-08
-7.42769e-09
7.93331e-08
-2.00574e-08
9.58126e-08
-3.64298e-08
1.14921e-07
-5.7201e-08
1.36982e-07
-8.31021e-08
1.62337e-07
-1.1494e-07
1.91345e-07
-1.53593e-07
2.24373e-07
-2.00002e-07
2.61776e-07
-2.55158e-07
3.03881e-07
-3.20071e-07
3.50959e-07
-3.95744e-07
4.03181e-07
-4.83126e-07
4.60562e-07
-5.83081e-07
5.22897e-07
-6.96365e-07
5.90032e-07
-8.24028e-07
-9.66995e-07
6.60863e-07
1.23157e-10
1.23598e-09
5.24607e-10
3.58856e-09
1.25803e-09
5.91135e-09
2.38468e-09
8.1291e-09
3.9744e-09
1.01487e-08
6.1066e-09
1.18563e-08
8.87152e-09
1.31146e-08
1.23716e-08
1.37591e-08
1.67227e-08
1.35944e-08
2.20561e-08
1.23905e-08
2.85194e-08
9.87826e-09
3.62791e-08
5.7443e-09
4.55219e-08
-3.73523e-10
5.64561e-08
-8.89144e-09
6.93133e-08
-2.02849e-08
8.43494e-08
-3.50935e-08
1.01845e-07
-5.39257e-08
1.22106e-07
-7.74614e-08
1.45457e-07
-1.06454e-07
1.72244e-07
-1.41726e-07
2.02819e-07
-1.84167e-07
2.37534e-07
-2.34717e-07
2.76722e-07
-2.94346e-07
3.20674e-07
-3.64023e-07
3.69603e-07
-4.44673e-07
4.23588e-07
-5.37112e-07
4.82503e-07
-6.41996e-07
5.45924e-07
-7.59786e-07
6.13526e-07
-8.9163e-07
-1.03685e-06
6.83377e-07
1.29346e-10
1.10664e-09
5.51995e-10
3.16591e-09
1.32548e-09
5.13786e-09
2.51544e-09
6.93914e-09
4.1966e-09
8.46753e-09
6.45389e-09
9.59905e-09
9.38368e-09
1.01848e-08
1.30951e-08
1.00476e-08
1.77116e-08
8.97795e-09
2.33721e-08
6.73002e-09
3.02332e-08
3.01717e-09
3.84703e-08
-2.49279e-09
4.82793e-08
-1.01826e-08
5.98781e-08
-2.04902e-08
7.35077e-08
-3.39145e-08
8.94329e-08
-5.10187e-08
1.07942e-07
-7.24345e-08
1.29344e-07
-9.88637e-08
1.53968e-07
-1.31078e-07
1.82154e-07
-1.69912e-07
2.14247e-07
-2.1626e-07
2.50579e-07
-2.71049e-07
2.91454e-07
-3.35222e-07
3.37122e-07
-4.09691e-07
3.87738e-07
-4.95288e-07
4.43286e-07
-5.9266e-07
5.03514e-07
-7.02224e-07
5.67737e-07
-8.24008e-07
6.35104e-07
-9.58997e-07
-1.10436e-06
7.02614e-07
1.36246e-10
9.70392e-10
5.82096e-10
2.72006e-09
1.3989e-09
4.32105e-09
2.65661e-09
5.68144e-09
4.43478e-09
6.68935e-09
6.82379e-09
7.21004e-09
9.92608e-09
7.08256e-09
1.38574e-08
6.1163e-09
1.87484e-08
4.08698e-09
2.47459e-08
7.3248e-10
3.20148e-08
-4.25167e-09
4.0739e-08
-1.1217e-08
5.11234e-08
-2.0567e-08
6.33948e-08
-3.27616e-08
7.78025e-08
-4.83222e-08
9.46186e-08
-6.78347e-08
1.14136e-07
-9.19523e-08
1.36668e-07
-1.21396e-07
1.62541e-07
-1.5695e-07
1.92087e-07
-1.99459e-07
2.25636e-07
-2.49808e-07
2.63496e-07
-3.0891e-07
3.05939e-07
-3.77665e-07
3.53169e-07
-4.56921e-07
4.05278e-07
-5.47397e-07
4.62192e-07
-6.49573e-07
5.23612e-07
-7.63644e-07
5.88779e-07
-8.89176e-07
6.55886e-07
-1.0261e-06
-1.16637e-06
7.179e-07
1.44008e-10
8.26384e-10
6.15522e-10
2.24855e-09
1.47966e-09
3.45691e-09
2.81063e-09
4.35048e-09
4.69278e-09
4.8072e-09
7.22185e-09
4.68096e-09
1.05062e-08
3.79823e-09
1.46681e-08
1.95443e-09
1.98451e-08
-1.09005e-09
2.61917e-08
-5.61414e-09
3.38806e-08
-1.19405e-08
4.31039e-08
-2.04404e-08
5.40749e-08
-3.15379e-08
6.7028e-08
-4.57148e-08
8.22198e-08
-6.3514e-08
9.99275e-08
-8.55425e-08
1.20448e-07
-1.12472e-07
1.44092e-07
-1.4504e-07
1.71181e-07
-1.84039e-07
2.02035e-07
-2.30313e-07
2.36964e-07
-2.84737e-07
2.76245e-07
-3.48191e-07
3.20107e-07
-4.21527e-07
3.68703e-07
-5.05517e-07
4.22062e-07
-6.00756e-07
4.80089e-07
-7.076e-07
5.4254e-07
-8.26095e-07
6.09031e-07
-9.55666e-07
6.78856e-07
-1.09593e-06
-1.24303e-06
7.55514e-07
1.52749e-10
6.73635e-10
6.52714e-10
1.74858e-09
1.56875e-09
2.54088e-09
2.97925e-09
2.93997e-09
4.97332e-09
2.81314e-09
7.65193e-09
2.00236e-09
1.11292e-08
3.20994e-10
1.55336e-08
-2.44999e-09
2.10096e-08
-6.56603e-09
2.77187e-08
-1.23233e-08
3.58411e-08
-2.00629e-08
4.55765e-08
-3.01759e-08
5.71455e-08
-4.31069e-08
7.07891e-08
-5.93584e-08
8.67691e-08
-7.9494e-08
1.05366e-07
-1.0414e-07
1.26877e-07
-1.33983e-07
1.51609e-07
-1.69771e-07
1.79872e-07
-2.12302e-07
2.1197e-07
-2.62411e-07
2.48183e-07
-3.2095e-07
2.88752e-07
-3.8876e-07
3.33855e-07
-4.6663e-07
3.83568e-07
-5.5523e-07
4.37847e-07
-6.55035e-07
4.96525e-07
-7.66277e-07
5.59286e-07
-8.88856e-07
6.25746e-07
-1.02213e-06
6.95314e-07
-1.1655e-06
-1.31483e-06
7.67116e-07
1.62526e-10
5.1111e-10
6.93916e-10
1.21719e-09
1.66671e-09
1.56808e-09
3.16347e-09
1.44321e-09
5.27792e-09
6.9869e-10
8.11611e-09
-8.35835e-10
1.17977e-08
-3.36061e-09
1.64573e-08
-7.10958e-09
2.22457e-08
-1.23544e-08
2.93312e-08
-1.94087e-08
3.79007e-08
-2.86325e-08
4.81609e-08
-4.0436e-08
6.03381e-08
-5.52841e-08
7.46788e-08
-7.36992e-08
9.14482e-08
-9.62633e-08
1.10927e-07
-1.23619e-07
1.3341e-07
-1.56466e-07
1.59196e-07
-1.95557e-07
1.8858e-07
-2.41686e-07
2.21842e-07
-2.95673e-07
2.59228e-07
-3.58336e-07
3.00933e-07
-4.30465e-07
3.47067e-07
-5.12765e-07
3.97625e-07
-6.05788e-07
4.52474e-07
-7.09884e-07
5.11332e-07
-8.25136e-07
5.73737e-07
-9.51261e-07
6.39078e-07
-1.08747e-06
7.06374e-07
-1.23279e-06
-1.38261e-06
7.74155e-07
1.7336e-10
3.3775e-10
7.392e-10
6.51351e-10
1.77372e-09
5.3356e-10
3.36357e-09
-1.46635e-10
5.60696e-09
-1.5447e-09
8.61488e-09
-3.84376e-09
1.25124e-08
-7.25808e-09
1.74397e-08
-1.20369e-08
2.35537e-08
-1.84684e-08
3.10288e-08
-2.68839e-08
4.00581e-08
-3.76618e-08
5.08538e-08
-5.12317e-08
6.36472e-08
-6.80775e-08
7.86882e-08
-8.87401e-08
9.6243e-08
-1.13818e-07
1.16591e-07
-1.43967e-07
1.40019e-07
-1.79894e-07
1.66815e-07
-2.22353e-07
1.97254e-07
-2.72125e-07
2.31585e-07
-3.30004e-07
2.70016e-07
-3.96767e-07
3.12685e-07
-4.73134e-07
3.59627e-07
-5.59707e-07
4.10752e-07
-6.56914e-07
4.65832e-07
-7.64964e-07
5.24461e-07
-8.83764e-07
5.86029e-07
-1.01283e-06
6.49741e-07
-1.15118e-06
7.14438e-07
-1.29749e-06
-1.4469e-06
7.78732e-07
1.85227e-10
1.52524e-10
7.88483e-10
4.80945e-11
1.88958e-09
-5.6754e-10
3.57916e-09
-1.83621e-09
5.9598e-09
-3.92534e-09
9.14723e-09
-7.0312e-09
1.32716e-08
-1.13824e-08
1.84785e-08
-1.72438e-08
2.49302e-08
-2.49202e-08
3.28068e-08
-3.47605e-08
4.23065e-08
-4.71614e-08
5.36459e-08
-6.25711e-08
6.70597e-08
-8.14914e-08
8.27993e-08
-1.0448e-07
1.0113e-07
-1.32149e-07
1.22325e-07
-1.65163e-07
1.46663e-07
-2.04232e-07
1.74414e-07
-2.50103e-07
2.05828e-07
-3.03539e-07
2.41121e-07
-3.65297e-07
2.80453e-07
-4.36099e-07
3.23898e-07
-5.16579e-07
3.71414e-07
-6.07222e-07
4.2283e-07
-7.0833e-07
4.77819e-07
-8.19952e-07
5.35856e-07
-9.41802e-07
5.96226e-07
-1.0732e-06
6.58025e-07
-1.21298e-06
7.20064e-07
-1.35953e-06
-1.50796e-06
7.81121e-07
1.98074e-10
-4.55506e-11
8.41544e-10
-5.95376e-10
2.01379e-09
-1.73978e-09
3.80932e-09
-3.63174e-09
6.33495e-09
-6.45096e-09
9.71093e-09
-1.04072e-08
1.40721e-08
-1.57436e-08
1.95691e-08
-2.27408e-08
2.63691e-08
-3.17202e-08
3.46567e-08
-4.30481e-08
4.46343e-08
-5.71391e-08
5.65219e-08
-7.44587e-08
7.05558e-08
-9.55252e-08
8.69866e-08
-1.20911e-07
1.06076e-07
-1.51238e-07
1.28089e-07
-1.87176e-07
1.53291e-07
-2.29434e-07
1.8193e-07
-2.78742e-07
2.14228e-07
-3.35837e-07
2.50361e-07
-4.0143e-07
2.90436e-07
-4.76174e-07
3.34456e-07
-5.60599e-07
3.8231e-07
-6.55076e-07
4.33743e-07
-7.59763e-07
4.8833e-07
-8.74539e-07
5.45453e-07
-9.98925e-07
6.04324e-07
-1.13207e-06
6.63988e-07
-1.27264e-06
7.23293e-07
-1.41884e-06
-1.56587e-06
7.812e-07
2.11817e-10
-2.57368e-10
8.98062e-10
-1.28162e-09
2.1456e-09
-2.98732e-09
4.0527e-09
-5.53885e-09
6.73022e-09
-9.12847e-09
1.03026e-08
-1.39796e-08
1.49092e-08
-2.03502e-08
2.07049e-08
-2.85365e-08
2.78612e-08
-3.88765e-08
3.65666e-08
-5.17534e-08
4.70263e-08
-6.75988e-08
5.94622e-08
-8.68945e-08
7.41103e-08
-1.10173e-07
9.12185e-08
-1.38019e-07
1.11042e-07
-1.71061e-07
1.33835e-07
-2.09969e-07
1.59844e-07
-2.55443e-07
1.89293e-07
-3.08192e-07
2.22372e-07
-3.68915e-07
2.5921e-07
-4.38269e-07
2.99855e-07
-5.16819e-07
3.44244e-07
-6.04988e-07
3.92195e-07
-7.03026e-07
4.43371e-07
-8.1094e-07
4.97259e-07
-9.28427e-07
5.53175e-07
-1.05484e-06
6.10283e-07
-1.18918e-06
6.67613e-07
-1.32997e-06
7.24082e-07
-1.4753e-06
-1.62062e-06
7.78832e-07
2.26358e-10
-4.83725e-10
9.57626e-10
-2.01289e-09
2.28406e-09
-4.31376e-09
4.30757e-09
-7.56236e-09
7.1428e-09
-1.19637e-08
1.09182e-08
-1.7755e-08
1.57769e-08
-2.52089e-08
2.18778e-08
-3.46373e-08
2.93957e-08
-4.63944e-08
3.85221e-08
-6.08797e-08
4.94639e-08
-7.85407e-08
6.24431e-08
-9.98737e-08
7.76938e-08
-1.25424e-07
9.54586e-08
-1.55784e-07
1.15983e-07
-1.91585e-07
1.39508e-07
-2.33494e-07
1.66258e-07
-2.82193e-07
1.96429e-07
-3.38363e-07
2.30172e-07
-4.02658e-07
2.67567e-07
-4.75664e-07
3.086e-07
-5.57851e-07
3.53148e-07
-6.49536e-07
4.00955e-07
-7.50834e-07
4.51605e-07
-8.6159e-07
5.04515e-07
-9.81337e-07
5.58955e-07
-1.10928e-06
6.1406e-07
-1.24428e-06
6.68875e-07
-1.38479e-06
7.22404e-07
-1.52883e-06
-1.67217e-06
7.73953e-07
2.41578e-10
-7.25303e-10
1.01977e-09
-2.79108e-09
2.42811e-09
-5.72209e-09
4.57194e-09
-9.7062e-09
7.56948e-09
-1.49612e-08
1.15527e-08
-2.17382e-08
1.66683e-08
-3.03245e-08
2.30782e-08
-4.10473e-08
3.09601e-08
-5.42763e-08
4.05069e-08
-7.04266e-08
5.19263e-08
-8.996e-08
6.54385e-08
-1.13386e-07
8.12737e-08
-1.41259e-07
9.96669e-08
-1.74177e-07
1.20852e-07
-2.1277e-07
1.45051e-07
-2.57693e-07
1.72465e-07
-3.09607e-07
2.03258e-07
-3.69156e-07
2.37539e-07
-4.36939e-07
2.75332e-07
-5.13458e-07
3.16568e-07
-5.99088e-07
3.61061e-07
-6.94029e-07
4.08482e-07
-7.98255e-07
4.58346e-07
-9.11453e-07
5.1002e-07
-1.03301e-06
5.62738e-07
-1.162e-06
6.15627e-07
-1.29717e-06
6.67769e-07
-1.43693e-06
7.18262e-07
-1.57933e-06
-1.72047e-06
7.66568e-07
2.57352e-10
-9.82655e-10
1.08397e-09
-3.61769e-09
2.57653e-09
-7.21466e-09
4.84363e-09
-1.19733e-08
8.00669e-09