/*--------------------------------*- C++ -*----------------------------------*\
| =========                 |                                                 |
| \\      /  F ield         | foam-extend: Open Source CFD                    |
|  \\    /   O peration     | Version:     4.0                                |
|   \\  /    A nd           | Web:         http://www.foam-extend.org         |
|    \\/     M anipulation  |                                                 |
\*---------------------------------------------------------------------------*/
FoamFile
{
    version     2.0;
    format      ascii;
    class       volVectorField;
    location    "45";
    object      U;
}
// * * * * * * * * * * * * * * * * * * * * * * * * * * * * * * * * * * * * * //

dimensions      [0 1 -1 0 0 0 0];

internalField   nonuniform List<vector> 
36000
(
(-4.11991e-07 1.9027e-06 -2.51854e-25)
(-4.10099e-06 5.3934e-06 2.60034e-25)
(-1.17632e-05 8.6781e-06 0)
(-2.34514e-05 1.17462e-05 0)
(-3.91375e-05 1.45883e-05 -2.27099e-25)
(-5.88104e-05 1.7195e-05 -2.15657e-25)
(-8.24508e-05 1.95576e-05 0)
(-0.000110002 2.16684e-05 0)
(-0.000141363 2.35206e-05 0)
(-0.000176389 2.51081e-05 0)
(-0.00021489 2.6426e-05 0)
(-0.000256625 2.74696e-05 -3.02878e-25)
(-0.000301309 2.82348e-05 -6.36018e-28)
(-0.000348598 2.87177e-05 -2.65012e-25)
(-0.000398097 2.89144e-05 2.4734e-25)
(-0.000449354 2.8821e-05 -2.30077e-25)
(-0.000501855 2.84327e-05 4.287e-25)
(-0.000555025 2.77437e-05 -1.98869e-25)
(-0.000608217 2.67468e-05 1.84335e-25)
(-0.000660715 2.54331e-05 5.11657e-25)
(-0.00071172 2.37911e-05 -3.97363e-28)
(-0.000760346 2.18069e-05 5.79787e-25)
(-0.000805612 1.94645e-05 -1.33484e-25)
(-0.000846434 1.67457e-05 -2.42839e-25)
(-0.000881617 1.3631e-05 -2.22051e-25)
(-0.000909855 1.00997e-05 0)
(-0.000929727 6.13109e-06 0)
(-0.000939577 1.70264e-06 0)
(-0.00093818 -3.06228e-06 1.45306e-25)
(-0.000923182 -8.45362e-06 -2.61859e-25)
(-6.06755e-07 5.73193e-06 0)
(-4.61291e-06 1.62523e-05 0)
(-1.25175e-05 2.61571e-05 0)
(-2.43727e-05 3.54138e-05 9.581e-25)
(-4.01508e-05 4.39934e-05 -2.23808e-25)
(-5.98406e-05 5.18674e-05 2.15635e-25)
(-8.34227e-05 5.90087e-05 0)
(-0.00011084 6.53934e-05 0)
(-0.000141993 7.10003e-05 -7.31069e-25)
(-0.000176735 7.58109e-05 6.85668e-25)
(-0.000214876 7.98088e-05 -6.46738e-25)
(-0.000256179 8.29798e-05 6.04784e-25)
(-0.000300354 8.53106e-05 2.83427e-25)
(-0.000347058 8.67889e-05 2.65248e-25)
(-0.000395897 8.74026e-05 4.94438e-25)
(-0.000446415 8.71392e-05 0)
(-0.000498099 8.59837e-05 -1.2868e-24)
(-0.00055037 8.39186e-05 -2.30242e-28)
(-0.000602579 8.09217e-05 1.47645e-24)
(-0.000654006 7.69658e-05 -1.02462e-24)
(-0.000703848 7.20163e-05 -6.31641e-25)
(-0.000751214 6.60315e-05 5.81026e-25)
(-0.00079512 5.89628e-05 -5.34847e-25)
(-0.000834475 5.07561e-05 9.79382e-25)
(-0.000868081 4.1353e-05 2.07091e-27)
(-0.000894626 3.06941e-05 8.10954e-25)
(-0.000912689 1.87264e-05 -1.10665e-24)
(-0.000920695 5.41735e-06 0)
(-0.00091723 -9.13033e-06 0)
(-0.000899797 -2.5354e-05 0)
(-9.91034e-07 9.46571e-06 1.01456e-24)
(-5.62323e-06 2.68475e-05 7.22512e-27)
(-1.40064e-05 4.32219e-05 -1.50618e-24)
(-2.61913e-05 5.8534e-05 1.92386e-24)
(-4.21509e-05 7.27351e-05 -2.27549e-24)
(-6.18739e-05 8.57764e-05 -1.73737e-24)
(-8.53403e-05 9.76123e-05 3.28304e-24)
(-0.000112493 0.000108202 -1.54827e-24)
(-0.000143231 0.000117508 0)
(-0.00017741 0.0001255 0)
(-0.00021484 0.000132148 0)
(-0.000255282 0.000137428 0)
(-0.000298446 0.000141316 1.13925e-24)
(-0.00034399 0.000143791 -2.65832e-24)
(-0.000391516 0.000144831 1.98672e-24)
(-0.000440568 0.000144414 0)
(-0.000490627 0.000142516 8.60676e-25)
(-0.00054111 0.000139104 -7.987e-25)
(-0.000591365 0.000134143 0)
(-0.000640661 0.000127586 0)
(-0.00068819 0.000119375 3.16339e-24)
(-0.000733052 0.000109442 -1.74909e-24)
(-0.000774251 9.77052e-05 0)
(-0.00081069 8.40764e-05 -2.18168e-27)
(-0.000841161 6.84595e-05 -9.00066e-25)
(-0.000864343 5.07579e-05 -8.26365e-25)
(-0.000878814 3.08837e-05 7.23827e-25)
(-0.000883052 8.82259e-06 6.63719e-25)
(-0.000875598 -1.54195e-05 0)
(-0.00085337 -4.23334e-05 1.583e-24)
(-1.5531e-06 1.30435e-05 0)
(-7.10157e-06 3.70115e-05 0)
(-1.61856e-05 5.96085e-05 5.0432e-25)
(-2.88534e-05 8.07575e-05 -1.93525e-24)
(-4.50788e-05 0.000100389 3.67145e-24)
(-6.48498e-05 0.000118433 -2.61252e-24)
(-8.8145e-05 0.000134824 0)
(-0.000114907 0.000149503 0)
(-0.000145034 0.000162418 -2.21193e-24)
(-0.000178383 0.00017352 2.76963e-24)
(-0.000214761 0.000182769 -1.29915e-24)
(-0.000253931 0.000190125 -1.22432e-24)
(-0.000295601 0.000195555 2.2885e-24)
(-0.000339428 0.000199026 -2.13421e-24)
(-0.000385011 0.000200507 -9.9486e-25)
(-0.00043189 0.000199964 0)
(-0.000479541 0.000197359 -3.46217e-24)
(-0.000527375 0.00019265 -5.25563e-27)
(-0.000574731 0.000185782 2.97968e-24)
(-0.00062087 0.000176691 3.73135e-27)
(-0.000664969 0.000165295 1.41755e-27)
(-0.000706118 0.000151498 -4.0273e-27)
(-0.000743307 0.00013519 -1.07903e-24)
(-0.000775425 0.000116246 1.98085e-24)
(-0.000801253 9.45378e-05 0)
(-0.000819457 6.99334e-05 5.98497e-27)
(-0.000828617 4.23128e-05 2.97215e-24)
(-0.00082725 1.16742e-05 -1.36372e-24)
(-0.000813911 -2.20728e-05 -3.6334e-24)
(-0.000784618 -5.94148e-05 -3.21119e-24)
(-2.27602e-06 1.64096e-05 1.54478e-24)
(-9.00392e-06 4.65891e-05 -3.19658e-24)
(-1.89908e-05 7.50723e-05 2.03395e-24)
(-3.22808e-05 0.000101759 1.95017e-24)
(-4.88484e-05 0.000126558 -1.84486e-24)
(-6.86797e-05 0.000149378 8.74434e-25)
(-9.17514e-05 0.000170132 -2.49604e-24)
(-0.000118004 0.000188742 6.27992e-24)
(-0.000147336 0.000205135 -7.31035e-25)
(-0.000179602 0.000219249 1.39892e-24)
(-0.000214609 0.000231025 -1.31411e-24)
(-0.000252119 0.000240411 1.22419e-24)
(-0.000291837 0.000247359 0)
(-0.000333419 0.000251824 0)
(-0.00037646 0.000253761 4.01938e-24)
(-0.000420494 0.000253125 -1.86695e-24)
(-0.000464991 0.000249865 1.73314e-24)
(-0.000509354 0.000243922 1.60954e-24)
(-0.00055291 0.000235225 -2.99409e-24)
(-0.000594908 0.00022369 -4.15508e-24)
(-0.000634511 0.000209212 1.28022e-24)
(-0.000670791 0.000191669 4.72122e-24)
(-0.000702725 0.00017092 -2.17255e-24)
(-0.000729183 0.00014681 1.58454e-26)
(-0.00074893 0.000119176 1.8256e-24)
(-0.000760628 8.78464e-05 -1.66319e-24)
(-0.000762855 5.27319e-05 -1.48814e-24)
(-0.000754145 1.37264e-05 2.71264e-26)
(-0.000733136 -2.92504e-05 1.20037e-24)
(-0.000694605 -7.66387e-05 2.14829e-24)
(-3.1383e-06 1.95141e-05 4.67333e-24)
(-1.12744e-05 5.54418e-05 -1.07303e-24)
(-2.234e-05 8.93932e-05 0)
(-3.63737e-05 0.000121245 -9.8729e-25)
(-5.33494e-05 0.000150883 -4.67984e-24)
(-7.32506e-05 0.000178194 5.31227e-24)
(-9.60498e-05 0.000203068 2.52347e-24)
(-0.000121685 0.000225405 -1.56909e-24)
(-0.000150052 0.000245113 1.50277e-24)
(-0.000181003 0.000262109 -7.01453e-24)
(-0.000214344 0.000276318 3.94762e-24)
(-0.000249834 0.000287669 -1.23441e-24)
(-0.000287177 0.000296099 4.63005e-24)
(-0.000326023 0.000301549 -2.16145e-24)
(-0.000365962 0.000303958 -6.06018e-24)
(-0.000406523 0.000303267 3.76214e-24)
(-0.000447167 0.000299409 -3.49969e-24)
(-0.000487285 0.000292308 -7.15239e-27)
(-0.000526194 0.000281877 -1.52464e-24)
(-0.000563125 0.000268009 -1.39859e-24)
(-0.000597227 0.000250578 5.15442e-24)
(-0.000627553 0.000229434 -4.74673e-24)
(-0.000653061 0.000204409 0)
(-0.000672604 0.000175317 -2.01354e-24)
(-0.000684934 0.000141959 -1.84114e-24)
(-0.000688703 0.000104174 -3.37856e-24)
(-0.000682489 6.1809e-05 3.0528e-24)
(-0.000664812 1.47262e-05 0)
(-0.000634518 -3.71445e-05 6.14035e-24)
(-0.000584705 -9.41007e-05 -1.11249e-24)
(-4.11483e-06 2.23152e-05 0)
(-1.38475e-05 6.34512e-05 0)
(-2.61369e-05 0.000102382 0)
(-4.10145e-05 0.000138962 -1.14873e-26)
(-5.84519e-05 0.000173052 6.61562e-24)
(-7.84277e-05 0.000204515 -5.34848e-24)
(-0.000100909 0.000233218 3.38971e-24)
(-0.000125829 0.000259037 -6.38541e-24)
(-0.000153078 0.000281859 -1.51319e-24)
(-0.000182507 0.000301578 -2.83644e-24)
(-0.000213917 0.000318099 2.65626e-24)
(-0.000247063 0.000331332 1.25475e-24)
(-0.000281645 0.000341196 1.32919e-26)
(-0.000317306 0.000347611 0)
(-0.000353632 0.000350504 -1.69524e-26)
(-0.000390142 0.000349795 1.89006e-24)
(-0.000426289 0.000345401 -1.75392e-24)
(-0.000461449 0.000337229 1.63185e-24)
(-0.000494926 0.00032517 6.07856e-24)
(-0.000525936 0.000309098 -1.38795e-26)
(-0.000553606 0.000288862 -2.61531e-24)
(-0.000576972 0.000264289 -2.38495e-24)
(-0.000594974 0.000235178 -7.5844e-27)
(-0.000606449 0.000201326 -2.05641e-24)
(-0.000610139 0.000162515 -3.72769e-24)
(-0.000604681 0.00011854 5.08279e-24)
(-0.000588636 6.92317e-05 -1.50791e-24)
(-0.000560523 1.44236e-05 -2.75141e-24)
(-0.000519578 -4.59301e-05 -4.93659e-24)
(-0.000456523 -0.000111967 2.25764e-24)
(-5.17784e-06 2.4779e-05 -4.26848e-24)
(-1.66506e-05 7.05216e-05 0)
(-3.02748e-05 0.000113886 -4.23112e-24)
(-4.60721e-05 0.000154701 5.00914e-24)
(-6.40101e-05 0.000192804 -5.72061e-24)
(-8.40604e-05 0.000228034 7.23265e-24)
(-0.000106182 0.000260232 -6.83994e-24)
(-0.000130299 0.000289249 1.59601e-24)
(-0.000156299 0.000314948 3.02093e-24)
(-0.000184022 0.000337201 -1.16782e-26)
(-0.000213268 0.000355887 -5.3806e-24)
(-0.000243782 0.000370897 5.03839e-24)
(-0.00027526 0.000382126 -4.7017e-24)
(-0.000307338 0.000389477 -8.80112e-24)
(-0.000339592 0.000392855 6.14637e-24)
(-0.000371532 0.000392161 1.9043e-24)
(-0.000402598 0.000387294 -5.3464e-24)
(-0.000432155 0.000378139 -3.32071e-24)
(-0.000459488 0.000364568 -3.05216e-24)
(-0.000483796 0.000346432 8.51606e-24)
(-0.000504188 0.000323556 -2.64975e-24)
(-0.000519682 0.000295744 8.43885e-27)
(-0.000529201 0.00026278 -4.49511e-24)
(-0.00053157 0.000224426 8.18869e-24)
(-0.000525516 0.00018044 3.72822e-24)
(-0.000509655 0.000130592 -3.40182e-24)
(-0.000482541 7.46906e-05 4.24033e-26)
(-0.000442681 1.25672e-05 2.83903e-24)
(-0.000390003 -5.57971e-05 5.01985e-24)
(-0.000311844 -0.00013042 -6.83558e-24)
(-6.29806e-06 2.68812e-05 4.34074e-24)
(-1.96068e-05 7.65822e-05 -5.61207e-24)
(-3.464e-05 0.000123787 -4.28828e-24)
(-5.14068e-05 0.000168301 4.0646e-24)
(-6.98681e-05 0.000209937 3.87078e-24)
(-8.99858e-05 0.000248506 -1.81261e-24)
(-0.000111707 0.000283826 0)
(-0.000134947 0.000315721 0)
(-0.000159582 0.000344029 1.52893e-24)
(-0.000185445 0.000368594 2.87517e-24)
(-0.000212325 0.000389272 8.12928e-24)
(-0.000239961 0.000405928 -5.07825e-24)
(-0.000268039 0.000418436 -2.37548e-26)
(-0.000296185 0.000426675 4.44634e-24)
(-0.000323965 0.000430527 -2.07656e-24)
(-0.000350877 0.000429873 -3.85818e-24)
(-0.000376348 0.000424588 1.07772e-23)
(-0.000399727 0.00041454 3.32344e-24)
(-0.00042028 0.000399574 1.60894e-26)
(-0.000437191 0.00037952 1.30018e-26)
(-0.000449549 0.000354186 -1.34092e-26)
(-0.00045636 0.000323353 2.44309e-24)
(-0.00045653 0.000286779 6.7559e-24)
(-0.000448868 0.000244203 4.60105e-26)
(-0.000432087 0.000195358 3.78006e-24)
(-0.000404789 0.000139988 -1.04154e-23)
(-0.000365533 7.78832e-05 -6.27314e-24)
(-0.000312749 8.89498e-06 4.24252e-26)
(-0.000247569 -6.69639e-05 2.60383e-24)
(-0.000152695 -0.000149445 4.54342e-24)
(-7.44574e-06 2.86069e-05 -3.29892e-24)
(-2.26377e-05 8.15876e-05 5.68192e-24)
(-3.91161e-05 0.000132009 -2.18807e-24)
(-5.68746e-05 0.000179652 6.21401e-24)
(-7.58645e-05 0.000224306 -3.91111e-24)
(-9.60345e-05 0.000265755 -1.84208e-24)
(-0.000117317 0.000303791 -7.01417e-24)
(-0.000139614 0.000338212 6.59956e-24)
(-0.000162788 0.000368826 -3.12872e-24)
(-0.00018666 0.000395453 0)
(-0.000211008 0.000417921 -5.48861e-24)
(-0.000235558 0.000436069 5.13267e-24)
(-0.000259985 0.000449745 -2.41824e-24)
(-0.000283903 0.000458803 4.48451e-24)
(-0.000306866 0.000463102 2.08268e-24)
(-0.000328357 0.000462498 0)
(-0.000347786 0.000456844 3.55736e-26)
(-0.000364486 0.00044598 0)
(-0.000377705 0.000429737 3.06654e-26)
(-0.00038661 0.000407921 5.80366e-24)
(-0.000390279 0.000380317 5.37994e-24)
(-0.000387697 0.000346687 2.46598e-24)
(-0.000377756 0.000306765 -1.36367e-23)
(-0.00035925 0.000260269 2.99405e-26)
(-0.000330889 0.000206907 0)
(-0.000291275 0.000146407 7.02106e-24)
(-0.000238981 7.85347e-05 -2.66974e-27)
(-0.000172207 3.17865e-06 8.76657e-24)
(-9.38239e-05 -7.98045e-05 0)
(1.83521e-05 -0.000168099 -4.67691e-24)
(-8.59179e-06 2.99502e-05 1.1464e-24)
(-2.56662e-05 8.55178e-05 2.33374e-24)
(-4.35879e-05 0.000138514 4.40958e-24)
(-6.23321e-05 0.000188697 -1.25763e-23)
(-8.18372e-05 0.00023583 5.93373e-24)
(-0.000102035 0.000279674 -5.63054e-24)
(-0.00012284 0.000319993 1.4193e-23)
(-0.000144136 0.000356558 -6.68342e-24)
(-0.000165768 0.000389149 6.29561e-24)
(-0.000187543 0.000417558 0)
(-0.000209223 0.000441586 0)
(-0.000230518 0.000461044 7.80841e-24)
(-0.00025109 0.000475752 6.18845e-27)
(-0.000270537 0.000485538 -4.53211e-24)
(-0.000288396 0.000490235 1.97865e-26)
(-0.000304133 0.000489673 -2.23758e-26)
(-0.000317142 0.000483678 -7.30989e-24)
(-0.000326736 0.000472074 3.40123e-24)
(-0.00033215 0.000454665 -3.14106e-24)
(-0.000332533 0.000431237 2.93853e-24)
(-0.000326946 0.000401554 -1.07919e-23)
(-0.000314359 0.000365357 -1.00131e-23)
(-0.00029365 0.000322361 4.6382e-24)
(-0.000263606 0.000272264 8.49963e-24)
(-0.000222938 0.000214757 -3.90869e-24)
(-0.000170265 0.000149555 -3.53355e-24)
(-0.000104224 7.64243e-05 0)
(-2.2701e-05 -4.60332e-06 -5.84713e-24)
(7.06049e-05 -9.46588e-05 0)
(0.000199141 -0.000187524 7.03511e-24)
(-9.70871e-06 3.09147e-05 -2.25593e-24)
(-2.86186e-05 8.83774e-05 7.08464e-24)
(-4.79446e-05 0.000143302 -8.91094e-24)
(-6.76405e-05 0.000195426 -3.15831e-26)
(-8.76278e-05 0.000244488 4.02856e-24)
(-0.000107818 0.000290223 -9.51585e-24)
(-0.000128103 0.00033237 7.18578e-24)
(-0.000148345 0.000370675 0)
(-0.00016837 0.000404888 3.20959e-24)
(-0.000187962 0.000434774 -8.99087e-24)
(-0.000206866 0.000460104 0)
(-0.000224773 0.000480662 -1.05074e-23)
(-0.000241327 0.00049624 4.90736e-24)
(-0.000256107 0.000506638 -4.60823e-24)
(-0.000268629 0.000511659 -4.23088e-24)
(-0.000278342 0.000511108 7.93633e-24)
(-0.000284616 0.00050479 0)
(-0.000286753 0.000492503 3.45421e-24)
(-0.000283967 0.000474027 6.37823e-24)
(-0.000275392 0.000449128 -1.18431e-23)
(-0.000260071 0.000417553 5.46402e-24)
(-0.000236962 0.000379022 -5.07204e-24)
(-0.000204932 0.000333233 -4.65114e-24)
(-0.000162768 0.000279866 -4.28974e-24)
(-0.000109183 0.000218599 -2.95928e-26)
(-4.28085e-05 0.000149145 0)
(3.76783e-05 7.12788e-05 -6.61128e-24)
(0.000134117 -1.49615e-05 0)
(0.000243317 -0.000111301 0)
(0.000389254 -0.000209025 4.79902e-24)
(-1.07714e-05 3.15114e-05 2.33239e-24)
(-3.14269e-05 9.01931e-05 -2.41002e-24)
(-5.2083e-05 0.000146409 -1.13557e-23)
(-7.26687e-05 0.000199877 1.07665e-23)
(-9.30854e-05 0.000250312 -1.02061e-23)
(-0.00011322 0.000297426 1.16108e-23)
(-0.000132939 0.000340934 -7.29149e-24)
(-0.000152077 0.000380556 1.37272e-23)
(-0.000170436 0.000416016 -6.45031e-24)
(-0.000187777 0.000447049 3.01038e-24)
(-0.000203821 0.000473399 2.82346e-24)
(-0.000218238 0.000494821 -5.34057e-24)
(-0.000230648 0.000511079 0)
(-0.000240606 0.000521944 4.63195e-24)
(-0.000247607 0.00052719 2.08895e-26)
(-0.000251073 0.0005266 8.06246e-24)
(-0.000250365 0.000519952 -7.49372e-24)
(-0.000244757 0.000507017 3.49063e-24)
(-0.000233446 0.000487558 -6.40924e-24)
(-0.000215553 0.000461322 1.19034e-23)
(-0.000190104 0.000428034 0)
(-0.000156047 0.000387398 0)
(-0.000112244 0.000339095 9.3786e-24)
(-5.74846e-05 0.000282793 4.29603e-24)
(9.50387e-06 0.000218162 -7.94895e-24)
(9.00675e-05 0.000144909 -3.67295e-24)
(0.000185473 6.27904e-05 6.61002e-24)
(0.00029736 -2.82003e-05 6.08761e-24)
(0.000422671 -0.000129576 5.52203e-24)
(0.000586739 -0.000232075 -4.89649e-24)
(-1.17575e-05 3.17587e-05 -1.17395e-23)
(-3.40301e-05 9.10108e-05 2.41001e-24)
(-5.59091e-05 0.000147901 0)
(-7.72962e-05 0.000202129 0)
(-9.80688e-05 0.000253389 -8.2944e-24)
(-0.000118086 0.00030137 3.94179e-24)
(-0.000137184 0.000345765 0)
(-0.000155168 0.000386269 0)
(-0.000171808 0.000422583 -3.24789e-24)
(-0.000186841 0.000454413 9.21457e-24)
(-0.000199961 0.000481477 -3.36691e-26)
(-0.000210811 0.000503503 2.70127e-24)
(-0.000218978 0.000520225 -2.83827e-26)
(-0.000223991 0.000531387 -9.34279e-24)
(-0.000225321 0.000536735 8.74979e-24)
(-0.000222372 0.000536027 4.05937e-26)
(-0.000214476 0.000529016 3.75734e-24)
(-0.000200892 0.000515453 1.40589e-23)
(-0.000180801 0.000495078 -1.95083e-23)
(-0.000153301 0.00046762 0)
(-0.000117409 0.000432786 0)
(-7.20625e-05 0.000390267 1.03187e-23)
(-1.61253e-05 0.00033973 -4.75063e-24)
(5.16035e-05 0.000280836 4.39287e-24)
(0.000132376 0.000213247 -4.0089e-24)
(0.000227504 0.000136665 2.20829e-23)
(0.000338184 5.08375e-05 -2.44034e-26)
(0.000465928 -4.42409e-05 -9.16004e-24)
(0.000607529 -0.000150018 6.97864e-26)
(0.000790039 -0.00025646 9.84029e-24)
(-1.2648e-05 3.16797e-05 -7.15349e-24)
(-3.63753e-05 9.08919e-05 9.87251e-24)
(-5.93405e-05 0.00014787 0)
(-8.14147e-05 0.000202297 -8.89223e-24)
(-0.000102448 0.000253847 4.17552e-24)
(-0.000122269 0.000302192 0)
(-0.000140679 0.000347 3.7688e-24)
(-0.000157451 0.000387944 -3.54532e-24)
(-0.000172327 0.000424704 -3.28819e-24)
(-0.000185007 0.000456968 -3.08452e-24)
(-0.000195148 0.000484427 2.88911e-24)
(-0.000202356 0.000506776 -1.08699e-23)
(-0.000206193 0.000523722 1.01507e-23)
(-0.000206162 0.000534983 4.75815e-24)
(-0.000201708 0.000540284 -8.81807e-24)
(-0.00019221 0.000539355 4.01654e-26)
(-0.000176977 0.000531929 -7.62544e-24)
(-0.000155243 0.000517733 -7.04642e-24)
(-0.000126168 0.00049649 6.53142e-24)
(-8.88337e-05 0.000467909 6.07799e-24)
(-4.22466e-05 0.000431684 1.12701e-23)
(1.466e-05 0.000387492 -1.03668e-23)
(8.3018e-05 0.000334997 0)
(0.000164013 0.000273851 -8.80052e-24)
(0.000258866 0.000203714 -4.08742e-24)
(0.000368845 0.000124292 -3.63595e-24)
(0.000495054 3.53278e-05 1.01776e-23)
(0.000638928 -6.31697e-05 -6.15331e-24)
(0.000796936 -0.000172753 -5.46987e-24)
(0.000997996 -0.000282188 5.06998e-24)
(-1.34285e-05 3.13033e-05 -2.41005e-24)
(-3.8422e-05 8.9912e-05 2.52653e-24)
(-6.23133e-05 0.000146428 -2.39843e-24)
(-8.49404e-05 0.000200522 -2.27213e-24)
(-0.000106123 0.000251852 4.23628e-24)
(-0.000125653 0.000300071 1.21066e-23)
(-0.000143297 0.000344833 -1.51771e-23)
(-0.00015879 0.00038579 3.54527e-24)
(-0.000171835 0.000422599 -3.32787e-24)
(-0.000182094 0.00045492 1.25627e-23)
(-0.000189189 0.000482424 -1.17593e-23)
(-0.000192695 0.000504786 5.46788e-24)
(-0.00019214 0.000521692 -1.53864e-23)
(-0.000186996 0.000532834 -9.56111e-24)
(-0.000176677 0.000537917 1.7814e-23)
(-0.000160529 0.000536644 4.16111e-24)
(-0.000137836 0.000528726 -1.54272e-23)
(-0.000107808 0.000513872 1.43155e-23)
(-6.95843e-05 0.000491786 -6.62087e-24)
(-2.22322e-05 0.000462163 -6.15672e-24)
(3.52516e-05 0.000424686 4.73815e-26)
(0.000103935 0.000379025 0)
(0.000184941 0.000324838 4.85256e-24)
(0.000279434 0.000261778 0)
(0.000388597 0.00018951 8.14726e-24)
(0.000513632 0.000107748 6.64829e-26)
(0.00065555 1.62315e-05 0)
(0.000815713 -8.50101e-05 6.08744e-26)
(0.000990162 -0.000197745 -5.58999e-24)
(0.00120975 -0.000309241 5.12216e-24)
(-1.40883e-05 3.06627e-05 0)
(-4.01377e-05 8.81591e-05 -2.52653e-24)
(-6.47731e-05 0.000143709 -7.26303e-24)
(-8.77972e-05 0.000196973 1.60391e-23)
(-0.000108995 0.000247596 -1.3006e-23)
(-0.000128122 0.000295219 -4.04773e-24)
(-0.000144902 0.000339478 1.15102e-23)
(-0.000159032 0.000380013 -3.63646e-24)
(-0.000170171 0.00041646 3.40916e-24)
(-0.000177946 0.000448464 -6.35911e-24)
(-0.000181937 0.000475672 5.94426e-24)
(-0.000181683 0.000497741 -5.55897e-24)
(-0.000176675 0.000514335 -5.44912e-26)
(-0.000166349 0.000525128 3.19751e-27)
(-0.000150082 0.000529801 4.52214e-24)
(-0.000127192 0.000528038 0)
(-9.69311e-05 0.000519531 7.73038e-24)
(-5.84865e-05 0.000503973 -7.17299e-24)
(-1.09766e-05 0.000481053 0)
(4.65468e-05 0.000450454 6.15634e-24)
(0.000115095 0.000411853 2.22382e-26)
(0.000195733 0.000364914 -5.28188e-24)
(0.000289573 0.000309296 -1.46321e-23)
(0.000397748 0.00024466 -9.00792e-24)
(0.000521392 0.000170679 0)
(0.000661628 8.70832e-05 -7.53134e-24)
(0.000819365 -6.38837e-06 0)
(0.000995883 -0.000109681 -6.27705e-24)
(0.00118672 -0.000224859 0)
(0.0014247 -0.000337491 -1.01946e-23)
(-1.46199e-05 2.97917e-05 0)
(-4.14983e-05 8.57253e-05 0)
(-6.66775e-05 0.000139856 0)
(-8.9923e-05 0.000191837 -9.2839e-24)
(-0.000110983 0.000241303 1.31239e-23)
(-0.000129573 0.000287885 -8.27827e-24)
(-0.000145374 0.000331211 3.91893e-24)
(-0.000158039 0.000370906 7.31833e-24)
(-0.000167186 0.000406594 0)
(-0.000172396 0.000437903 -6.46792e-24)
(-0.000173209 0.000464467 1.20205e-23)
(-0.000169124 0.000485925 -1.49877e-26)
(-0.00015959 0.000501924 -7.26662e-27)
(-0.000144004 0.000512122 -4.85538e-24)
(-0.000121707 0.000516179 4.56141e-24)
(-9.19825e-05 0.000513766 0)
(-5.40526e-05 0.000504559 -1.56991e-23)
(-7.07771e-06 0.000488236 1.45317e-23)
(4.98449e-05 0.000464477 -6.73352e-24)
(0.000117678 0.000432957 0)
(0.000197438 0.000393346 -5.75962e-24)
(0.000290188 0.000345313 5.32202e-24)
(0.000397019 0.000288522 4.87436e-24)
(0.000519028 0.000222645 4.45813e-24)
(0.000657278 0.000147374 0)
(0.000812813 6.24592e-05 7.64407e-24)
(0.000986417 -3.23577e-05 0)
(0.00117927 -0.000136989 0)
(0.00138635 -0.00025386 5.92034e-24)
(0.00164246 -0.00036669 1.02306e-23)
(-1.50191e-05 2.87244e-05 0)
(-4.2488e-05 8.27037e-05 0)
(-6.79959e-05 0.000135014 0)
(-9.12699e-05 0.000185303 9.41308e-24)
(-0.00011202 0.0002332 8.88483e-24)
(-0.000129918 0.000278332 -1.26073e-23)
(-0.000144602 0.000320318 3.96241e-24)
(-0.000155678 0.000358775 -7.3703e-24)
(-0.00016272 0.00039332 6.94211e-24)
(-0.000165262 0.000423569 -1.30423e-23)
(-0.000162802 0.000449145 2.16807e-26)
(-0.000154794 0.000469675 1.99784e-26)
(-0.000140643 0.000484794 5.32896e-24)
(-0.000119703 0.000494144 0)
(-9.12786e-05 0.000497374 -1.37206e-23)
(-5.46161e-05 0.000494142 8.52079e-24)
(-8.90588e-06 0.000484113 7.8677e-24)
(4.67195e-05 0.000466956 -7.3545e-24)
(0.000113184 0.000442343 6.81033e-24)
(0.000191465 0.000409946 -6.27564e-24)
(0.000282583 0.000369437 1.16061e-23)
(0.000387592 0.000320489 -5.36034e-24)
(0.000507558 0.00026278 0)
(0.000643522 0.000196001 1.8157e-23)
(0.000796477 0.000119869 -1.67556e-23)
(0.000967366 3.41571e-05 1.01214e-26)
(0.00115682 -6.13805e-05 -7.02983e-24)
(0.00136591 -0.000166614 -6.37352e-24)
(0.00158898 -0.000284394 -5.75349e-24)
(0.00186281 -0.000396457 0)
(-1.52846e-05 2.74938e-05 0)
(-4.30981e-05 7.91861e-05 0)
(-6.87077e-05 0.000129326 4.9993e-24)
(-9.18012e-05 0.000177562 -9.48642e-24)
(-0.000112048 0.000223522 -9.00153e-24)
(-0.000129077 0.000266827 1.27176e-23)
(-0.00014248 0.000307097 -4.01835e-24)
(-0.000151816 0.000343946 -7.49983e-24)
(-0.000156612 0.000376985 3.53569e-24)
(-0.000156356 0.000405825 0)
(-0.000150498 0.000430082 1.22837e-23)
(-0.000138444 0.000449375 -1.14874e-23)
(-0.000119555 0.000463332 0)
(-9.31415e-05 0.000471585 0)
(-5.84663e-05 0.000473776 -4.64645e-24)
(-1.47386e-05 0.000469555 -8.62712e-24)
(3.88851e-05 0.000458581 8.00083e-24)
(0.000103301 0.000440517 7.35465e-24)
(0.000179454 0.000415033 -1.36722e-23)
(0.000268334 0.000381803 -6.34574e-24)
(0.000370964 0.000340505 5.86312e-24)
(0.000488383 0.000290823 -5.39138e-24)
(0.000621618 0.000232455 4.9747e-24)
(0.000771647 0.00016512 0)
(0.000939378 8.85607e-05 -1.40989e-26)
(0.00112563 2.5866e-06 2.31515e-23)
(0.00133086 -9.3032e-05 -7.0705e-24)
(0.00155598 -0.000198112 0)
(0.00179466 -0.000315985 1.1749e-23)
(0.00208563 -0.000426286 -1.03593e-23)
(-1.54169e-05 2.6131e-05 0)
(-4.33249e-05 7.52593e-05 -1.07733e-23)
(-6.87992e-05 0.000122933 1.01641e-23)
(-9.1488e-05 0.000168802 4.85647e-24)
(-0.000111019 0.000212496 -9.13729e-24)
(-0.000126978 0.00025364 -4.26313e-24)
(-0.000138909 0.000291854 2.01915e-23)
(-0.000146325 0.000326754 -1.89898e-23)
(-0.000148701 0.00035795 1.07077e-23)
(-0.00014548 0.000385054 6.69131e-24)
(-0.000136061 0.000407679 6.24906e-24)
(-0.000119804 0.000425443 0)
(-9.60189e-05 0.00043797 -1.07868e-23)
(-6.39747e-05 0.000444887 1.00603e-23)
(-2.28899e-05 0.000445835 1.39717e-23)
(2.80652e-05 0.000440462 -8.74983e-24)
(8.97686e-05 0.000428424 6.57177e-26)
(0.000163145 0.000409385 -7.43598e-24)
(0.000249161 0.000383018 6.8429e-24)
(0.000348817 0.000349003 6.3461e-24)
(0.000463132 0.000307032 3.88486e-26)
(0.00059312 0.000256805 0)
(0.000739754 0.00019805 1.00306e-23)
(0.00090395 0.000130513 0)
(0.0010865 5.39749e-05 8.47715e-24)
(0.00128808 -3.17128e-05 4.23676e-26)
(0.00150891 -0.000126758 7.06939e-24)
(0.00174975 -0.000230913 -4.40094e-26)
(0.00200351 -0.000348032 -2.34328e-23)
(0.00231081 -0.000455553 1.56478e-23)
(-1.54178e-05 2.46642e-05 0)
(-4.31677e-05 7.10036e-05 -1.09184e-23)
(-6.82612e-05 0.000115963 2.58625e-23)
(-9.03066e-05 0.000159198 -4.87776e-24)
(-0.00010889 0.000200343 0)
(-0.000123553 0.00023903 5.40487e-26)
(-0.000133792 0.000274886 1.635e-23)
(-0.000139071 0.000307529 -1.53839e-23)
(-0.000138819 0.000336579 -7.13353e-24)
(-0.000132427 0.000361648 6.78635e-24)
(-0.000119245 0.000382356 -2.51136e-23)
(-9.85812e-05 0.000398322 2.93211e-23)
(-6.97006e-05 0.000409169 -2.18179e-23)
(-3.18238e-05 0.000414531 5.06318e-24)
(1.58738e-05 0.00041405 -9.40824e-24)
(7.42617e-05 0.000407376 8.72604e-24)
(0.000144253 0.00039417 8.17699e-24)
(0.000226801 0.000374101 -7.49254e-24)
(0.00032289 0.000346852 6.89543e-24)
(0.000433528 0.000312116 -6.40749e-24)
(0.000559721 0.0002696 2.44128e-26)
(0.000702443 0.000219037 0)
(0.000862618 0.000160178 -1.00263e-23)
(0.00104106 9.28101e-05 3.57828e-26)
(0.00123844 1.67578e-05 3.3268e-26)
(0.00145523 -6.80776e-05 7.81082e-24)
(0.0016914 -0.00016188 -7.14021e-24)
(0.0019475 -0.000264323 1.30216e-23)
(0.00221562 -0.000379827 1.18558e-23)
(0.00253815 -0.00048354 0)
(-1.52896e-05 2.31179e-05 1.07522e-23)
(-4.26275e-05 6.649e-05 -2.78728e-24)
(-6.70863e-05 0.000108533 0)
(-8.82351e-05 0.000148911 -4.9297e-24)
(-0.000105619 0.000187267 0)
(-0.000118733 0.000223244 -4.381e-24)
(-0.000127029 0.000256477 0)
(-0.000129923 0.000286597 -1.1612e-23)
(-0.000126793 0.000313231 -7.1902e-24)
(-0.000116982 0.000336003 2.04735e-23)
(-9.97881e-05 0.000354538 6.31712e-24)
(-7.44697e-05 0.000368465 -1.7707e-23)
(-4.02435e-05 0.000377414 3.77428e-26)
(3.7169e-06 0.000381029 2.55788e-23)
(5.828e-05 0.000378956 -3.10506e-26)
(0.000124355 0.000370857 -1.76852e-23)
(0.00020289 0.000356401 -8.13415e-24)
(0.000294864 0.00033527 0)
(0.000401276 0.000307162 6.96412e-24)
(0.000523134 0.000271787 6.44922e-24)
(0.000661415 0.000228883 -1.19381e-23)
(0.000817056 0.000178208 0)
(0.000990905 0.000119551 -1.01386e-23)
(0.00118366 5.27445e-05 -9.27119e-24)
(0.00139582 -2.23359e-05 -8.52136e-24)
(0.00162762 -0.000105734 -7.77109e-24)
(0.00187874 -0.000197612 7.17068e-24)
(0.00214949 -0.000297557 -1.30145e-23)
(0.00243096 -0.000410564 4.78626e-26)
(0.00276732 -0.000509463 1.04304e-23)
(-1.50345e-05 2.15129e-05 0)
(-4.17044e-05 6.17796e-05 -3.66056e-26)
(-6.52662e-05 0.000100744 -1.59677e-23)
(-8.52501e-05 0.000138084 5.00688e-24)
(-0.00010116 0.000173453 0)
(-0.000112448 0.000206506 2.23139e-23)
(-0.000118519 0.000236895 -3.77631e-23)
(-0.000118741 0.000264264 7.89116e-24)
(-0.000112445 0.000288254 -1.46989e-23)
(-9.8922e-05 0.000308503 6.94399e-24)
(-7.74201e-05 0.000324649 0)
(-4.71492e-05 0.000336333 0)
(-7.27647e-06 0.000343201 -5.59225e-24)
(4.30708e-05 0.000344907 5.19471e-24)
(0.000104805 0.000341115 0)
(0.000178873 0.000331498 8.85542e-24)
(0.000266256 0.000315742 0)
(0.000367955 0.000293547 1.52562e-23)
(0.000484978 0.00026463 -7.05058e-24)
(0.000618314 0.000228734 0)
(0.000768918 0.00018562 -6.05192e-24)
(0.000937667 0.000135086 0)
(0.00112531 7.69637e-05 2.03264e-23)
(0.0013324 1.11366e-05 9.36738e-24)
(0.00155921 -6.24633e-05 8.59595e-24)
(0.00180572 -0.000143822 0)
(0.00207123 -0.000233078 3.95142e-26)
(0.00235575 -0.000329729 6.56769e-24)
(0.00264938 -0.000439374 -1.18905e-23)
(0.00299773 -0.000532497 -1.04242e-23)
(-1.46536e-05 1.98656e-05 1.10394e-23)
(-4.03964e-05 5.69228e-05 -2.89788e-24)
(-6.27891e-05 9.26844e-05 -6.924e-26)
(-8.13242e-05 0.000126841 1.52213e-23)
(-9.54656e-05 0.000159063 -1.44455e-23)
(-0.000104622 0.000189021 -4.49047e-24)
(-0.000108153 0.000216385 -5.11218e-26)
(-0.000105381 0.000240818 -4.6877e-26)
(-9.55893e-05 0.000261976 0)
(-7.80167e-05 0.000279519 -1.38886e-23)
(-5.18648e-05 0.0002931 1.94355e-23)
(-1.62931e-05 0.00030238 -1.21143e-23)
(2.95784e-05 0.000307024 1.12425e-23)
(8.6668e-05 0.000306704 -5.1953e-24)
(0.000155929 0.000301102 0)
(0.000238347 0.000289913 9.01386e-24)
(0.000334929 0.000272844 -5.04556e-26)
(0.000446692 0.000249619 -7.63059e-24)
(0.000574637 0.000219986 7.07928e-24)
(0.000719741 0.000183715 -6.55205e-24)
(0.000882912 0.000140606 2.4121e-23)
(0.00106495 9.04973e-05 -2.22335e-23)
(0.00126646 3.32723e-05 1.02469e-23)
(0.00148783 -3.11303e-05 -3.75509e-23)
(0.00172908 -0.000102718 -1.71926e-23)
(0.00198985 -0.000181415 3.90112e-26)
(0.00226902 -0.000267337 1.44736e-23)
(0.00256616 -0.000359905 1.96836e-23)
(0.00287049 -0.000465342 -5.99554e-24)
(0.00322845 -0.000551814 0)
(-1.41467e-05 1.81887e-05 -1.11851e-23)
(-3.86975e-05 5.19597e-05 -7.50646e-26)
(-5.96377e-05 8.44234e-05 5.41959e-24)
(-7.64234e-05 0.000115287 5.10558e-24)
(-8.84789e-05 0.000144239 -2.43183e-23)
(-9.51713e-05 0.000170969 3.65935e-23)
(-9.58176e-05 0.000195168 -2.57744e-23)
(-8.9694e-05 0.00021652 4.02668e-23)
(-7.60349e-05 0.000234705 -1.51008e-23)
(-5.40335e-05 0.000249402 -2.1122e-23)
(-2.28425e-05 0.000260289 1.31829e-23)
(1.84259e-05 0.00026705 5.56415e-26)
(7.06975e-05 0.000269372 5.7348e-24)
(0.000134934 0.000266952 0)
(0.000212128 0.000259497 9.75634e-24)
(0.000303296 0.000246726 -8.99305e-24)
(0.000409465 0.000228376 1.67518e-23)
(0.000531656 0.000204201 -7.70639e-24)
(0.000670865 0.000173982 -7.12986e-24)
(0.000828036 0.000137524 -6.58875e-24)
(0.00100401 9.46697e-05 -1.81352e-23)
(0.00119948 4.53058e-05 2.23272e-23)
(0.0014149 -1.06297e-05 1.02565e-23)
(0.00165042 -7.31375e-05 -8.67807e-26)
(0.00190576 -0.00014216 -3.8993e-26)
(0.00218017 -0.000217558 0)
(0.00247206 -0.000299415 5.43473e-26)
(0.00278035 -0.000387132 -2.63166e-23)
(0.00309377 -0.000487555 5.84644e-24)
(0.00345828 -0.000566683 -1.06849e-23)
(-1.35112e-05 1.64911e-05 1.43266e-26)
(-3.65968e-05 4.69202e-05 1.74827e-23)