/*--------------------------------*- C++ -*----------------------------------*\
| =========                 |                                                 |
| \\      /  F ield         | foam-extend: Open Source CFD                    |
|  \\    /   O peration     | Version:     4.0                                |
|   \\  /    A nd           | Web:         http://www.foam-extend.org         |
|    \\/     M anipulation  |                                                 |
\*---------------------------------------------------------------------------*/
FoamFile
{
    version     2.0;
    format      ascii;
    class       volScalarField;
    location    "85";
    object      p;
}
// * * * * * * * * * * * * * * * * * * * * * * * * * * * * * * * * * * * * * //

dimensions      [0 2 -2 0 0 0 0];

internalField   nonuniform List<scalar> 
36000
(
-7.39059e-06
-7.42214e-06
-7.45562e-06
-7.48667e-06
-7.51569e-06
-7.54321e-06
-7.56927e-06
-7.5938e-06
-7.61676e-06
-7.63815e-06
-7.658e-06
-7.67636e-06
-7.69328e-06
-7.70881e-06
-7.72303e-06
-7.73601e-06
-7.74778e-06
-7.75836e-06
-7.76775e-06
-7.7759e-06
-7.78271e-06
-7.788e-06
-7.79153e-06
-7.79294e-06
-7.79176e-06
-7.78738e-06
-7.77905e-06
-7.76583e-06
-7.74639e-06
-7.71914e-06
-7.40007e-06
-7.43122e-06
-7.46429e-06
-7.49496e-06
-7.52364e-06
-7.55083e-06
-7.57659e-06
-7.60084e-06
-7.62354e-06
-7.64469e-06
-7.66433e-06
-7.68248e-06
-7.69922e-06
-7.71459e-06
-7.72868e-06
-7.74153e-06
-7.75319e-06
-7.7637e-06
-7.77303e-06
-7.78114e-06
-7.78794e-06
-7.79325e-06
-7.79683e-06
-7.79832e-06
-7.79727e-06
-7.79305e-06
-7.78496e-06
-7.7721e-06
-7.75292e-06
-7.72476e-06
-7.41886e-06
-7.44923e-06
-7.48147e-06
-7.51139e-06
-7.53939e-06
-7.56594e-06
-7.5911e-06
-7.61478e-06
-7.63696e-06
-7.65764e-06
-7.67684e-06
-7.6946e-06
-7.71098e-06
-7.72603e-06
-7.73983e-06
-7.75243e-06
-7.76389e-06
-7.77422e-06
-7.78343e-06
-7.79147e-06
-7.79824e-06
-7.80358e-06
-7.80725e-06
-7.8089e-06
-7.80807e-06
-7.80418e-06
-7.79653e-06
-7.78434e-06
-7.76569e-06
-7.73572e-06
-7.44664e-06
-7.47586e-06
-7.5069e-06
-7.53572e-06
-7.5627e-06
-7.5883e-06
-7.61257e-06
-7.63543e-06
-7.65684e-06
-7.67681e-06
-7.69536e-06
-7.71252e-06
-7.72835e-06
-7.74292e-06
-7.75629e-06
-7.76851e-06
-7.77965e-06
-7.78972e-06
-7.79872e-06
-7.80663e-06
-7.81334e-06
-7.8187e-06
-7.82247e-06
-7.82433e-06
-7.82381e-06
-7.82035e-06
-7.81333e-06
-7.80205e-06
-7.78419e-06
-7.75156e-06
-7.48296e-06
-7.51069e-06
-7.54017e-06
-7.56757e-06
-7.59323e-06
-7.6176e-06
-7.6407e-06
-7.66248e-06
-7.68288e-06
-7.70191e-06
-7.71959e-06
-7.73596e-06
-7.75107e-06
-7.76498e-06
-7.77776e-06
-7.78946e-06
-7.80015e-06
-7.80985e-06
-7.81856e-06
-7.82625e-06
-7.83284e-06
-7.83819e-06
-7.84206e-06
-7.84413e-06
-7.84397e-06
-7.84102e-06
-7.83473e-06
-7.82456e-06
-7.80779e-06
-7.77153e-06
-7.52726e-06
-7.5532e-06
-7.5808e-06
-7.60647e-06
-7.63054e-06
-7.65341e-06
-7.6751e-06
-7.69554e-06
-7.71471e-06
-7.73258e-06
-7.74919e-06
-7.76457e-06
-7.77877e-06
-7.79185e-06
-7.80387e-06
-7.81491e-06
-7.825e-06
-7.8342e-06
-7.8425e-06
-7.84988e-06
-7.85627e-06
-7.86153e-06
-7.86545e-06
-7.86771e-06
-7.86791e-06
-7.86549e-06
-7.86e-06
-7.85109e-06
-7.83571e-06
-7.79454e-06
-7.57887e-06
-7.60276e-06
-7.6282e-06
-7.65188e-06
-7.6741e-06
-7.69523e-06
-7.71528e-06
-7.73418e-06
-7.75188e-06
-7.7684e-06
-7.78373e-06
-7.79793e-06
-7.81103e-06
-7.8231e-06
-7.8342e-06
-7.8444e-06
-7.85375e-06
-7.86229e-06
-7.87005e-06
-7.877e-06
-7.88307e-06
-7.88814e-06
-7.89201e-06
-7.89438e-06
-7.89488e-06
-7.89296e-06
-7.88826e-06
-7.88066e-06
-7.86702e-06
-7.81938e-06
-7.63705e-06
-7.65867e-06
-7.68171e-06
-7.70319e-06
-7.72336e-06
-7.74254e-06
-7.76073e-06
-7.77788e-06
-7.79393e-06
-7.80889e-06
-7.82276e-06
-7.83558e-06
-7.8474e-06
-7.85827e-06
-7.86826e-06
-7.87745e-06
-7.88588e-06
-7.89361e-06
-7.90066e-06
-7.90702e-06
-7.91262e-06
-7.91735e-06
-7.92103e-06
-7.9234e-06
-7.92408e-06
-7.92256e-06
-7.91858e-06
-7.91218e-06
-7.90061e-06
-7.84474e-06
-7.70099e-06
-7.72018e-06
-7.74065e-06
-7.75974e-06
-7.77768e-06
-7.79474e-06
-7.81091e-06
-7.82612e-06
-7.84034e-06
-7.85355e-06
-7.86577e-06
-7.87703e-06
-7.88738e-06
-7.89687e-06
-7.90557e-06
-7.91355e-06
-7.92089e-06
-7.92761e-06
-7.93377e-06
-7.93934e-06
-7.94429e-06
-7.9485e-06
-7.95182e-06
-7.954e-06
-7.95471e-06
-7.95345e-06
-7.95003e-06
-7.94458e-06
-7.93558e-06
-7.8685e-06
-7.76988e-06
-7.78652e-06
-7.80429e-06
-7.82087e-06
-7.83644e-06
-7.85123e-06
-7.86523e-06
-7.87835e-06
-7.89058e-06
-7.90188e-06
-7.91228e-06
-7.9218e-06
-7.93049e-06
-7.93841e-06
-7.94562e-06
-7.95221e-06
-7.95823e-06
-7.96376e-06
-7.96881e-06
-7.97339e-06
-7.97746e-06
-7.98094e-06
-7.98368e-06
-7.98548e-06
-7.986e-06
-7.98474e-06
-7.98152e-06
-7.97672e-06
-7.97205e-06
-7.88694e-06
-7.84291e-06
-7.85695e-06
-7.87193e-06
-7.88591e-06
-7.89902e-06
-7.91144e-06
-7.92314e-06
-7.93405e-06
-7.94414e-06
-7.95338e-06
-7.9618e-06
-7.96941e-06
-7.97626e-06
-7.98241e-06
-7.98794e-06
-7.99292e-06
-7.99743e-06
-8.00152e-06
-8.00524e-06
-8.00859e-06
-8.01155e-06
-8.01405e-06
-8.01597e-06
-8.01711e-06
-8.01717e-06
-8.0156e-06
-8.01206e-06
-8.00697e-06
-8.01128e-06
-7.89738e-06
-7.91931e-06
-7.93072e-06
-7.9429e-06
-7.95424e-06
-7.96483e-06
-7.97479e-06
-7.9841e-06
-7.9927e-06
-8.00053e-06
-8.00758e-06
-8.01386e-06
-8.01939e-06
-8.02423e-06
-8.02843e-06
-8.03208e-06
-8.03525e-06
-8.03802e-06
-8.04045e-06
-8.04257e-06
-8.04444e-06
-8.04602e-06
-8.04725e-06
-8.04806e-06
-8.04825e-06
-8.04756e-06
-8.04543e-06
-8.04116e-06
-8.03357e-06
-8.05032e-06
-7.91248e-06
-7.99836e-06
-8.00718e-06
-8.01656e-06
-8.02525e-06
-8.0333e-06
-8.04077e-06
-8.04764e-06
-8.05383e-06
-8.0593e-06
-8.06405e-06
-8.06805e-06
-8.07135e-06
-8.07401e-06
-8.07609e-06
-8.07767e-06
-8.07881e-06
-8.0796e-06
-8.08011e-06
-8.08039e-06
-8.08047e-06
-8.08038e-06
-8.08008e-06
-8.07949e-06
-8.07844e-06
-8.07669e-06
-8.07369e-06
-8.06917e-06
-8.06288e-06
-8.07043e-06
-7.94178e-06
-8.07943e-06
-8.08572e-06
-8.09237e-06
-8.09845e-06
-8.10395e-06
-8.10892e-06
-8.1133e-06
-8.11702e-06
-8.12007e-06
-8.12239e-06
-8.12401e-06
-8.12495e-06
-8.12528e-06
-8.12506e-06
-8.12436e-06
-8.12325e-06
-8.12182e-06
-8.12014e-06
-8.11829e-06
-8.11633e-06
-8.1143e-06
-8.11219e-06
-8.10992e-06
-8.10735e-06
-8.10422e-06
-8.10006e-06
-8.09493e-06
-8.0889e-06
-8.08984e-06
-7.96496e-06
-8.16198e-06
-8.16585e-06
-8.16985e-06
-8.17338e-06
-8.17638e-06
-8.17885e-06
-8.18073e-06
-8.18195e-06
-8.18249e-06
-8.18232e-06
-8.18145e-06
-8.17992e-06
-8.17778e-06
-8.17508e-06
-8.17188e-06
-8.16827e-06
-8.16436e-06
-8.16025e-06
-8.15604e-06
-8.1518e-06
-8.14758e-06
-8.14338e-06
-8.13915e-06
-8.13476e-06
-8.12996e-06
-8.12432e-06
-8.11809e-06
-8.11139e-06
-8.10912e-06
-7.98078e-06
-8.24558e-06
-8.24715e-06
-8.24863e-06
-8.24969e-06
-8.25026e-06
-8.25029e-06
-8.24968e-06
-8.24839e-06
-8.24637e-06
-8.24363e-06
-8.2402e-06
-8.23607e-06
-8.23127e-06
-8.22586e-06
-8.21995e-06
-8.21366e-06
-8.20709e-06
-8.20035e-06
-8.19354e-06
-8.18677e-06
-8.18009e-06
-8.17353e-06
-8.16706e-06
-8.16057e-06
-8.15384e-06
-8.14643e-06
-8.13872e-06
-8.13089e-06
-8.12653e-06
-7.99084e-06
-8.32989e-06
-8.3293e-06
-8.32839e-06
-8.3271e-06
-8.32531e-06
-8.32292e-06
-8.31986e-06
-8.31607e-06
-8.31151e-06
-8.30615e-06
-8.30001e-06
-8.29311e-06
-8.28551e-06
-8.27728e-06
-8.26855e-06
-8.2594e-06
-8.24997e-06
-8.24038e-06
-8.23075e-06
-8.22121e-06
-8.21182e-06
-8.20266e-06
-8.1937e-06
-8.18487e-06
-8.17594e-06
-8.1665e-06
-8.15703e-06
-8.1477e-06
-8.14168e-06
-7.99607e-06
-8.41474e-06
-8.41216e-06
-8.40901e-06
-8.40546e-06
-8.40139e-06
-8.39664e-06
-8.39114e-06
-8.38483e-06
-8.37767e-06
-8.36964e-06
-8.36075e-06
-8.35103e-06
-8.34055e-06
-8.32939e-06
-8.31767e-06
-8.3055e-06
-8.29302e-06
-8.28038e-06
-8.26773e-06
-8.2552e-06
-8.2429e-06
-8.2309e-06
-8.21923e-06
-8.20782e-06
-8.19647e-06
-8.18478e-06
-8.1733e-06
-8.16218e-06
-8.15474e-06
-7.99693e-06
-8.5001e-06
-8.49566e-06
-8.49042e-06
-8.48474e-06
-8.47847e-06
-8.47143e-06
-8.46353e-06
-8.45472e-06
-8.44495e-06
-8.43421e-06
-8.42251e-06
-8.40989e-06
-8.39643e-06
-8.38223e-06
-8.36739e-06
-8.35204e-06
-8.33635e-06
-8.32049e-06
-8.30463e-06
-8.28893e-06
-8.27352e-06
-8.2585e-06
-8.24393e-06
-8.22975e-06
-8.21579e-06
-8.20165e-06
-8.18796e-06
-8.17479e-06
-8.1661e-06
-7.99388e-06
-8.58602e-06
-8.57988e-06
-8.57268e-06
-8.56499e-06
-8.55661e-06
-8.54733e-06
-8.53707e-06
-8.52577e-06
-8.51339e-06
-8.49991e-06
-8.48536e-06
-8.46979e-06
-8.45327e-06
-8.43591e-06
-8.41782e-06
-8.39917e-06
-8.38013e-06
-8.36091e-06
-8.34169e-06
-8.32266e-06
-8.30399e-06
-8.28579e-06
-8.26815e-06
-8.25105e-06
-8.23433e-06
-8.21758e-06
-8.2015e-06
-8.18607e-06
-8.17626e-06
-7.98742e-06
-8.6727e-06
-8.66499e-06
-8.65596e-06
-8.64635e-06
-8.63593e-06
-8.62448e-06
-8.6119e-06
-8.59812e-06
-8.58312e-06
-8.56689e-06
-8.54945e-06
-8.53087e-06
-8.51121e-06
-8.4906e-06
-8.46917e-06
-8.44712e-06
-8.42463e-06
-8.40193e-06
-8.37923e-06
-8.35675e-06
-8.33467e-06
-8.31318e-06
-8.29235e-06
-8.27221e-06
-8.2526e-06
-8.2331e-06
-8.21447e-06
-8.1966e-06
-8.18575e-06
-7.97809e-06
-8.76041e-06
-8.75124e-06
-8.74049e-06
-8.72904e-06
-8.71665e-06
-8.70307e-06
-8.68819e-06
-8.67195e-06
-8.65433e-06
-8.63533e-06
-8.61498e-06
-8.59333e-06
-8.57048e-06
-8.54655e-06
-8.52171e-06
-8.49617e-06
-8.47014e-06
-8.44387e-06
-8.41759e-06
-8.39157e-06
-8.36601e-06
-8.34111e-06
-8.31701e-06
-8.29373e-06
-8.27112e-06
-8.24874e-06
-8.22741e-06
-8.2069e-06
-8.19509e-06
-7.9665e-06
-8.84954e-06
-8.83899e-06
-8.82658e-06
-8.81337e-06
-8.79905e-06
-8.78337e-06
-8.76621e-06
-8.74752e-06
-8.72727e-06
-8.70548e-06
-8.68218e-06
-8.65743e-06
-8.63134e-06
-8.60404e-06
-8.57574e-06
-8.54666e-06
-8.51702e-06
-8.48711e-06
-8.4572e-06
-8.42757e-06
-8.39846e-06
-8.37011e-06
-8.34266e-06
-8.31616e-06
-8.29043e-06
-8.26503e-06
-8.24083e-06
-8.21747e-06
-8.20466e-06
-7.95335e-06
-8.94051e-06
-8.92862e-06
-8.91462e-06
-8.89967e-06
-8.88345e-06
-8.86568e-06
-8.84625e-06
-8.8251e-06
-8.80222e-06
-8.77763e-06
-8.75135e-06
-8.72347e-06
-8.6941e-06
-8.66341e-06
-8.6316e-06
-8.59893e-06
-8.56566e-06
-8.53207e-06
-8.49849e-06
-8.46521e-06
-8.43253e-06
-8.40067e-06
-8.36981e-06
-8.33998e-06
-8.31104e-06
-8.28246e-06
-8.25518e-06
-8.22866e-06
-8.2146e-06
-7.93945e-06
-9.0338e-06
-9.0206e-06
-9.00502e-06
-8.98833e-06
-8.97022e-06
-8.95036e-06
-8.92864e-06
-8.90502e-06
-8.8795e-06
-8.85208e-06
-8.8228e-06
-8.79175e-06
-8.75909e-06
-8.72498e-06
-8.68965e-06
-8.65337e-06
-8.61643e-06
-8.57916e-06
-8.5419e-06
-8.50497e-06
-8.46867e-06
-8.43327e-06
-8.39893e-06
-8.3657e-06
-8.3334e-06
-8.30146e-06
-8.2708e-06
-8.24074e-06
-8.22479e-06
-7.92595e-06
-9.12993e-06
-9.1154e-06
-9.09821e-06
-9.07977e-06
-9.05974e-06
-9.03776e-06
-9.01374e-06
-8.98763e-06
-8.95943e-06
-8.92915e-06
-8.89685e-06
-8.86263e-06
-8.82665e-06
-8.78911e-06
-8.75025e-06
-8.71036e-06
-8.66976e-06
-8.62882e-06
-8.58787e-06
-8.54727e-06
-8.50735e-06
-8.46835e-06
-8.43047e-06
-8.39374e-06
-8.35793e-06
-8.32238e-06
-8.28794e-06
-8.25384e-06
-8.23474e-06
-7.91464e-06
-9.22941e-06
-9.2135e-06
-9.19465e-06
-9.17441e-06
-9.1524e-06
-9.12827e-06
-9.1019e-06
-9.07326e-06
-9.04235e-06
-9.00918e-06
-8.97383e-06
-8.93642e-06
-8.89712e-06
-8.85615e-06
-8.81376e-06
-8.77028e-06
-8.72604e-06
-8.68143e-06
-8.63681e-06
-8.59254e-06
-8.54895e-06
-8.50633e-06
-8.46485e-06
-8.42449e-06
-8.38498e-06
-8.34551e-06
-8.30677e-06
-8.26791e-06
-8.24252e-06
-7.90654e-06
-9.33274e-06
-9.31537e-06
-9.29478e-06
-9.27266e-06
-9.24861e-06
-9.22225e-06
-9.19348e-06
-9.16226e-06
-9.12859e-06
-9.09251e-06
-9.05409e-06
-9.01347e-06
-8.97084e-06
-8.92644e-06
-8.88054e-06
-8.83349e-06
-8.78563e-06
-8.73736e-06
-8.68906e-06
-8.64111e-06
-8.59386e-06
-8.54757e-06
-8.50239e-06
-8.45828e-06
-8.41483e-06
-8.37116e-06
-8.32744e-06
-8.28217e-06
-8.24075e-06
-7.895e-06
-9.44038e-06
-9.42144e-06
-9.39899e-06
-9.37489e-06
-9.34871e-06
-9.32006e-06
-9.28881e-06
-9.25495e-06
-9.21847e-06
-9.17943e-06
-9.13792e-06
-9.09408e-06
-9.04812e-06
-9.0003e-06
-8.95091e-06
-8.9003e-06
-8.84883e-06
-8.79692e-06
-8.74495e-06
-8.69333e-06
-8.64237e-06
-8.59235e-06
-8.54338e-06
-8.49536e-06
-8.44782e-06
-8.39978e-06
-8.35036e-06
-8.29571e-06
-8.21808e-06
-7.87526e-06
-9.55276e-06
-9.53211e-06
-9.50767e-06
-9.48146e-06
-9.45305e-06
-9.422e-06
-9.3882e-06
-9.35161e-06
-9.31227e-06
-9.27023e-06
-9.2256e-06
-9.17853e-06
-9.12925e-06
-9.07801e-06
-9.02514e-06
-8.97098e-06
-8.91592e-06
-8.86038e-06
-8.80475e-06
-8.74942e-06
-8.69471e-06
-8.64087e-06
-8.588e-06
-8.53597e-06
-8.48433e-06
-8.43226e-06
-8.37745e-06
-8.31413e-06
-8.19559e-06
-7.96682e-06
-9.67023e-06
-9.64772e-06
-9.62113e-06
-9.59268e-06
-9.56191e-06
-9.52835e-06
-9.49189e-06
-9.45251e-06
-9.41025e-06
-9.36517e-06
-9.31738e-06
-9.26707e-06
-9.21446e-06
-9.15981e-06
-9.10346e-06
-9.04576e-06
-8.98713e-06
-8.92795e-06
-8.86864e-06
-8.80955e-06
-8.75101e-06
-8.69323e-06
-8.63629e-06
-8.58013e-06
-8.52448e-06
-8.46921e-06
-8.41211e-06
-8.35447e-06
-8.26256e-06
-8.5211e-06
-9.79308e-06
-9.76854e-06
-9.73962e-06
-9.70878e-06
-9.67551e-06
-9.63933e-06
-9.60011e-06
-9.55786e-06
-9.51261e-06
-9.46444e-06
-9.41347e-06
-9.35989e-06
-9.30393e-06
-9.24587e-06
-9.18604e-06
-9.12482e-06
-9.0626e-06
-8.99978e-06
-8.93673e-06
-8.87382e-06
-8.8113e-06
-8.74937e-06
-8.68807e-06
-8.62733e-06
-8.56699e-06
-8.50722e-06
-8.44622e-06
-8.39045e-06
-8.31255e-06
-8.63413e-06
-9.92151e-06
-9.89476e-06
-9.86333e-06
-9.82993e-06
-9.79403e-06
-9.75511e-06
-9.71303e-06
-9.66782e-06
-9.61951e-06
-9.5682e-06
-9.51401e-06
-9.45713e-06
-9.39781e-06
-9.33633e-06
-9.27303e-06
-9.20827e-06
-9.14245e-06
-9.07593e-06
-9.00908e-06
-8.9422e-06
-8.87551e-06
-8.80914e-06
-8.74306e-06
-8.67713e-06
-8.61111e-06
-8.54521e-06
-8.47749e-06
-8.41527e-06
-8.32456e-06
-8.58709e-06
-1.00556e-05
-1.00265e-05
-9.99236e-06
-9.95625e-06
-9.91758e-06
-9.87579e-06
-9.83075e-06
-9.78249e-06
-9.73105e-06
-9.67654e-06
-9.61909e-06
-9.55888e-06
-9.49618e-06
-9.43127e-06
-9.36448e-06
-9.29617e-06
-9.22669e-06
-9.15641e-06
-9.08563e-06
-9.01461e-06
-8.9435e-06
-8.87232e-06
-8.80095e-06
-8.72912e-06
-8.65645e-06
-8.58292e-06
-8.50618e-06
-8.43262e-06
-8.32424e-06
-8.53328e-06
-1.01955e-05
-1.01637e-05
-1.01267e-05
-1.00878e-05
-1.00462e-05
-1.00014e-05
-9.95329e-06
-9.9019e-06
-9.84727e-06
-9.7895e-06
-9.72874e-06
-9.66519e-06
-9.59908e-06
-9.53072e-06
-9.46041e-06
-9.38849e-06
-9.31529e-06
-9.24113e-06
-9.16627e-06
-9.09088e-06
-9.01502e-06
-8.9386e-06
-8.86136e-06
-8.78287e-06
-8.70259e-06
-8.62005e-06
-8.53251e-06
-8.44532e-06
-8.31969e-06
-8.4809e-06
-1.03409e-05
-1.03065e-05
-1.02664e-05
-1.02244e-05
-1.01798e-05
-1.01319e-05
-1.00806e-05
-1.0026e-05
-9.96813e-06
-9.90706e-06
-9.84295e-06
-9.77601e-06
-9.70648e-06
-9.63462e-06
-9.56074e-06
-9.48515e-06
-9.40813e-06
-9.32995e-06
-9.25079e-06
-9.17074e-06
-9.08975e-06
-9.00759e-06
-8.92383e-06
-8.83794e-06
-8.74901e-06
-8.6563e-06
-8.55675e-06
-8.45456e-06
-8.31231e-06
-8.42771e-06
-1.04919e-05
-1.04545e-05
-1.04112e-05
-1.03661e-05
-1.03183e-05
-1.02672e-05
-1.02127e-05
-1.01548e-05
-1.00936e-05
-1.00291e-05
-9.96164e-06
-9.89128e-06
-9.81827e-06
-9.74287e-06
-9.66536e-06
-9.58599e-06
-9.50502e-06
-9.42262e-06
-9.3389e-06
-9.25384e-06
-9.16727e-06
-9.07879e-06
-8.98788e-06
-8.89372e-06
-8.79522e-06
-8.6913e-06
-8.57878e-06
-8.46088e-06
-8.30254e-06
-8.37397e-06
-1.06481e-05
-1.06077e-05
-1.0561e-05
-1.05125e-05
-1.04615e-05
-1.04071e-05
-1.03492e-05
-1.0288e-05
-1.02234e-05
-1.01556e-05
-1.00846e-05
-1.00108e-05
-9.93429e-06
-9.85529e-06
-9.77405e-06
-9.69079e-06
-9.60568e-06
-9.51883e-06
-9.43023e-06
-9.33975e-06
-9.24707e-06
-9.15169e-06
-9.05287e-06
-8.9496e-06
-8.84057e-06
-8.72462e-06
-8.5983e-06
-8.46432e-06
-8.29046e-06
-8.32024e-06
-1.08091e-05
-1.07655e-05
-1.07154e-05
-1.06635e-05
-1.0609e-05
-1.05513e-05
-1.049e-05
-1.04254e-05
-1.03574e-05
-1.02861e-05
-1.02117e-05
-1.01344e-05
-1.00543e-05
-9.97163e-06
-9.88655e-06
-9.79923e-06
-9.70977e-06
-9.61817e-06
-9.52432e-06
-9.42795e-06
-9.3286e-06
-9.22566e-06
-9.11814e-06
-9.0049e-06
-8.88452e-06
-8.75564e-06
-8.61495e-06
-8.46468e-06
-8.27584e-06
-8.26646e-06
-1.09747e-05
-1.09278e-05
-1.0874e-05
-1.08186e-05
-1.07607e-05
-1.06995e-05
-1.06348e-05
-1.05667e-05
-1.04952e-05
-1.04205e-05
-1.03427e-05
-1.02618e-05
-1.0178e-05
-1.00915e-05
-1.00025e-05
-9.91092e-06
-9.81684e-06
-9.72016e-06
-9.62064e-06
-9.51784e-06
-9.41123e-06
-9.29996e-06
-9.18296e-06
-9.0589e-06
-8.92638e-06
-8.78382e-06
-8.62826e-06
-8.46159e-06
-8.25819e-06
-8.21213e-06
-1.11441e-05
-1.10938e-05
-1.10363e-05
-1.09773e-05
-1.0916e-05
-1.08513e-05
-1.07831e-05
-1.07116e-05
-1.06366e-05
-1.05584e-05
-1.0477e-05
-1.03925e-05
-1.0305e-05
-1.02146e-05
-1.01214e-05
-1.00254e-05
-9.92639e-06
-9.82423e-06
-9.71853e-06
-9.60877e-06
-9.49419e-06
-9.37383e-06
-9.24648e-06
-9.11085e-06
-8.96532e-06
-8.80848e-06
-8.63766e-06
-8.45456e-06
-8.23693e-06
-8.15656e-06
-1.13169e-05
-1.12631e-05
-1.12019e-05
-1.11392e-05
-1.10743e-05
-1.10062e-05
-1.09345e-05
-1.08595e-05
-1.0781e-05
-1.06993e-05
-1.06143e-05
-1.05262e-05
-1.04348e-05
-1.03404e-05
-1.02429e-05
-1.01421e-05
-1.00378e-05
-9.92971e-06
-9.81731e-06
-9.69995e-06
-9.57668e-06
-9.44644e-06
-9.30795e-06
-9.15985e-06
-9.00062e-06
-8.82894e-06
-8.64255e-06
-8.44303e-06
-8.21142e-06
-8.09897e-06
-1.14923e-05
-1.1435e-05
-1.13699e-05
-1.13037e-05
-1.12352e-05
-1.11635e-05
-1.10884e-05
-1.10099e-05
-1.0928e-05
-1.08427e-05
-1.07541e-05
-1.06622e-05
-1.0567e-05
-1.04683e-05
-1.03662e-05
-1.02603e-05
-1.01504e-05
-1.00358e-05
-9.91619e-06
-9.79052e-06
-9.65781e-06
-9.51687e-06
-9.36646e-06
-9.20511e-06
-9.0315e-06
-8.84452e-06
-8.64232e-06
-8.42646e-06
-8.1811e-06
-8.03846e-06
-1.16696e-05
-1.16087e-05
-1.15398e-05
-1.14699e-05
-1.13979e-05
-1.13228e-05
-1.12442e-05
-1.11622e-05
-1.10768e-05
-1.0988e-05
-1.08957e-05
-1.08e-05
-1.07007e-05
-1.05976e-05
-1.04906e-05
-1.03793e-05
-1.02633e-05
-1.01418e-05
-1.00143e-05
-9.87955e-06
-9.73659e-06
-9.5842e-06
-9.421e-06
-9.24572e-06
-9.05718e-06
-8.85452e-06
-8.63638e-06
-8.40439e-06
-8.14555e-06
-7.97443e-06
-1.18478e-05
-1.17834e-05
-1.17107e-05
-1.16371e-05
-1.15617e-05
-1.14831e-05
-1.14011e-05
-1.13156e-05
-1.12268e-05
-1.11344e-05
-1.10385e-05
-1.09388e-05
-1.08353e-05
-1.07276e-05
-1.06155e-05
-1.04984e-05
-1.03757e-05
-1.02468e-05
-1.01106e-05
-9.96609e-06
-9.81209e-06
-9.6474e-06
-9.47068e-06
-9.28081e-06
-9.07685e-06
-8.85825e-06
-8.62416e-06
-8.37636e-06
-8.10455e-06
-7.90713e-06
-1.20261e-05
-1.19581e-05
-1.18816e-05
-1.18045e-05
-1.17256e-05
-1.16437e-05
-1.15583e-05
-1.14695e-05
-1.13772e-05
-1.12813e-05
-1.11816e-05
-1.10779e-05
-1.097e-05
-1.08574e-05
-1.07398e-05
-1.06164e-05
-1.04867e-05
-1.03495e-05
-1.02041e-05
-1.0049e-05
-9.88327e-06
-9.70547e-06
-9.51453e-06
-9.3095e-06
-9.08973e-06
-8.85502e-06
-8.60506e-06
-8.34185e-06
-8.05747e-06
-7.83635e-06
-1.22034e-05
-1.21319e-05
-1.20517e-05
-1.19711e-05
-1.18888e-05
-1.18036e-05
-1.17149e-05
-1.16228e-05
-1.15271e-05
-1.14276e-05
-1.13241e-05
-1.12163e-05
-1.11038e-05
-1.09861e-05
-1.08626e-05
-1.07325e-05
-1.05951e-05
-1.04491e-05
-1.02936e-05
-1.01273e-05
-9.94894e-06
-9.75735e-06
-9.55157e-06
-9.33092e-06
-9.09505e-06
-8.84418e-06
-8.57853e-06
-8.30031e-06
-8.00374e-06
-7.76115e-06
-1.23784e-05
-1.23036e-05
-1.22197e-05
-1.21358e-05
-1.20503e-05
-1.19618e-05
-1.187e-05
-1.17746e-05
-1.16755e-05
-1.15725e-05
-1.14651e-05
-1.1353e-05
-1.12357e-05
-1.11125e-05
-1.09828e-05
-1.08455e-05
-1.06998e-05
-1.05444e-05
-1.03781e-05
-1.01997e-05
-1.0008e-05
-9.80201e-06
-9.58086e-06
-9.3442e-06
-9.09208e-06
-8.82511e-06
-8.54403e-06
-8.25132e-06
-7.94296e-06
-7.68102e-06
-1.25502e-05
-1.2472e-05
-1.23847e-05
-1.22974e-05
-1.22089e-05
-1.21173e-05
-1.20224e-05
-1.19238e-05
-1.18214e-05
-1.17148e-05
-1.16035e-05
-1.1487e-05
-1.13646e-05
-1.12357e-05
-1.10992e-05
-1.09542e-05
-1.07996e-05
-1.0634e-05
-1.04563e-05
-1.02652e-05
-1.00595e-05
-9.8384e-06
-9.60144e-06
-9.34853e-06
-9.0801e-06
-8.7972e-06
-8.50108e-06
-8.19443e-06
-7.8748e-06
-7.59565e-06
-1.27172e-05
-1.26359e-05
-1.25452e-05
-1.24549e-05
-1.23633e-05
-1.22689e-05
-1.2171e-05
-1.20694e-05
-1.19637e-05
-1.18534e-05
-1.17381e-05
-1.1617e-05
-1.14893e-05
-1.13542e-05
-1.12107e-05
-1.10574e-05
-1.08933e-05
-1.07168e-05
-1.0527e-05
-1.03223e-05
-1.01021e-05
-9.86549e-06
-9.6124e-06
-9.3431e-06
-9.05845e-06
-8.75992e-06
-8.44921e-06
-8.12925e-06
-7.79888e-06
-7.50437e-06
-1.28783e-05
-1.27939e-05
-1.27001e-05
-1.26068e-05
-1.25125e-05
-1.24153e-05
-1.23145e-05
-1.22099e-05
-1.2101e-05
-1.19871e-05
-1.18676e-05
-1.17418e-05
-1.16086e-05
-1.1467e-05
-1.13158e-05
-1.11537e-05
-1.09794e-05
-1.07915e-05
-1.05888e-05
-1.03701e-05
-1.01348e-05
-9.8823e-06
-9.61287e-06
-9.32717e-06
-9.0265e-06
-8.71274e-06
-8.38802e-06
-8.05545e-06
-7.71496e-06
-7.40668e-06
-1.30319e-05
-1.29447e-05
-1.28478e-05
-1.27519e-05
-1.2655e-05
-1.25552e-05
-1.24517e-05
-1.23442e-05
-1.22321e-05
-1.21145e-05
-1.19908e-05
-1.186e-05
-1.17209e-05
-1.15724e-05
-1.14132e-05
-1.12417e-05
-1.10567e-05
-1.08567e-05
-1.06406e-05
-1.04073e-05
-1.01564e-05
-9.88783e-06
-9.60199e-06
-9.30004e-06
-8.98369e-06
-8.65523e-06
-8.31715e-06
-7.97276e-06
-7.62299e-06
-7.30275e-06
-1.31765e-05
-1.30867e-05
-1.29871e-05
-1.28886e-05
-1.27893e-05
-1.26871e-05
-1.25811e-05
-1.24708e-05
-1.23555e-05
-1.22343e-05
-1.21063e-05
-1.19703e-05
-1.1825e-05
-1.16692e-05
-1.15014e-05
-1.13201e-05
-1.11238e-05
-1.09111e-05
-1.0681e-05
-1.04328e-05
-1.01661e-05
-9.88118e-06
-9.57899e-06
-9.26105e-06
-8.92948e-06
-8.58694e-06
-8.23626e-06
-7.881e-06
-7.52282e-06
-7.19141e-06
-1.33105e-05
-1.32183e-05
-1.31163e-05
-1.30156e-05
-1.29141e-05
-1.28097e-05
-1.27013e-05
-1.25884e-05
-1.24699e-05
-1.2345e-05
-1.22125e-05
-1.20711e-05
-1.19194e-05
-1.17559e-05
-1.15791e-05
-1.13873e-05
-1.11792e-05
-1.09533e-05
-1.07089e-05
-1.04453e-05
-1.01626e-05
-9.86146e-06
-9.54312e-06
-9.20959e-06
-8.86338e-06
-8.5075e-06
-8.1451e-06
-7.78003e-06
-7.41401e-06
-7.07047e-06
-1.34325e-05
-1.33381e-05
-1.32339e-05
-1.31312e-05
-1.30279e-05
-1.29214e-05
-1.28108e-05
-1.26953e-05
-1.25737e-05
-1.24451e-05
-1.2308e-05
-1.21609e-05
-1.20025e-05
-1.18309e-05
-1.16446e-05
-1.1442e-05
-1.12216e-05
-1.09822e-05
-1.0723e-05
-1.04439e-05
-1.01452e-05
-9.82785e-06
-9.49371e-06
-9.1451e-06
-8.78495e-06
-8.41655e-06
-8.04342e-06
-7.66957e-06
-7.29514e-06
-6.94075e-06
-1.35406e-05
-1.34444e-05
-1.33383e-05
-1.32339e-05
-1.31289e-05
-1.30207e-05
-1.29081e-05
-1.279e-05
-1.26655e-05
-1.2533e-05
-1.23911e-05
-1.22383e-05
-1.20728e-05
-1.18928e-05
-1.16967e-05
-1.14827e-05
-1.12496e-05
-1.09962e-05
-1.07222e-05
-1.04274e-05
-1.01128e-05
-9.7796e-06
-9.43011e-06
-9.06709e-06
-8.69378e-06
-8.3138e-06
-7.93102e-06
-7.54904e-06
-7.16594e-06
-6.80395e-06
-1.36334e-05
-1.35356e-05
-1.3428e-05
-1.33221e-05
-1.32157e-05
-1.3106e-05
-1.29915e-05
-1.28711e-05
-1.27435e-05
-1.26072e-05
-1.24604e-05
-1.23016e-05
-1.21287e-05
-1.194e-05
-1.17336e-05
-1.1508e-05
-1.12619e-05
-1.09944e-05
-1.07053e-05
-1.0395e-05
-1.00646e-05
-9.716e-06
-9.35177e-06
-8.97509e-06
-8.58952e-06
-8.199e-06
-7.8076e-06
-7.41735e-06
-7.0277e-06
-6.65961e-06
-1.3709e-05
-1.361e-05
-1.35011e-05
-1.33942e-05
-1.32867e-05
-1.31756e-05
-1.30594e-05
-1.29368e-05
-1.28062e-05
-1.2666e-05
-1.25143e-05
-1.23492e-05
-1.21688e-05
-1.1971e-05
-1.17541e-05
-1.15165e-05
-1.12572e-05
-1.09755e-05
-1.06714e-05
-1.03457e-05
-9.99991e-06
-9.63642e-06
-9.25818e-06
-8.8687e-06
-8.47188e-06
-8.07194e-06
-7.6727e-06
-7.27398e-06
-6.88079e-06
-6.50711e-06
-1.37659e-05
-1.3666e-05
-1.35562e-05
-1.34486e-05
-1.33402e-05
-1.32281e-05
-1.31103e-05
-1.29856e-05
-1.2852e-05
-1.27079e-05
-1.25511e-05
-1.23797e-05
-1.21914e-05
-1.19843e-05
-1.17566e-05
-1.1507e-05
-1.12343e-05
-1.09383e-05
-1.06193e-05
-1.02786e-05
-9.91799e-06
-9.5403e-06
-9.14888e-06
-8.74757e-06
-8.34059e-06
-7.93233e-06
-7.52533e-06
-7.12006e-06
-6.72488e-06
-6.34586e-06
-1.38024e-05
-1.37019e-05
-1.35917e-05
-1.34836e-05
-1.33747e-05
-1.32617e-05
-1.31426e-05
-1.30158e-05
-1.28794e-05
-1.27314e-05
-1.25694e-05
-1.23914e-05
-1.21951e-05
-1.19785e-05
-1.17399e-05
-1.1478e-05
-1.11921e-05
-1.08819e-05
-1.05484e-05
-1.0193e-05
-9.81824e-06
-9.42714e-06
-9.02348e-06
-8.61142e-06
-8.19546e-06
-7.77975e-06
-7.36509e-06
-6.95609e-06
-6.55947e-06
-6.17562e-06
-7.68352e-06
-7.62855e-06
-7.56276e-06
-7.47911e-06
-7.37605e-06
-7.24921e-06
-7.09736e-06
-6.91716e-06
-6.70541e-06
-6.4594e-06
-6.17704e-06
-5.857e-06
-5.49893e-06
-5.10379e-06
-4.674e-06
-4.21366e-06
-3.72852e-06
-3.22615e-06
-2.71505e-06
-2.20529e-06
-1.70745e-06
-1.23201e-06
-7.88353e-07
-3.84529e-07
-2.74986e-08
2.77934e-07
5.293e-07
7.26346e-07
8.70887e-07
9.66545e-07
1.01835e-06
1.03231e-06
1.01498e-06
9.7309e-07
9.13245e-07
8.41591e-07
7.63596e-07
6.83827e-07
6.05809e-07
5.32007e-07
4.63904e-07
4.02217e-07
3.4707e-07
2.98274e-07
2.5536e-07
2.17864e-07
1.85128e-07
1.56737e-07
1.31982e-07
1.10681e-07
9.20275e-08
7.62045e-08
6.21181e-08
5.05147e-08
3.96741e-08
3.12921e-08
2.24331e-08
1.70531e-08
7.85816e-09
8.79084e-09
-7.69205e-06
-7.63565e-06
-7.57027e-06
-7.48683e-06
-7.38409e-06
-7.258e-06
-7.10617e-06
-6.92623e-06
-6.71489e-06
-6.46928e-06
-6.18729e-06
-5.86755e-06
-5.50972e-06
-5.11472e-06
-4.68498e-06
-4.22458e-06
-3.73928e-06
-3.23663e-06
-2.72512e-06
-2.21492e-06
-1.71654e-06
-1.2405e-06
-7.96208e-07
-3.91716e-07
-3.40092e-08
2.72099e-07
5.24127e-07
7.21813e-07
8.66968e-07
9.63202e-07
1.01554e-06
1.02998e-06
1.01309e-06
9.71593e-07
9.1208e-07
8.407e-07
7.6293e-07
6.83334e-07
6.0545e-07
5.31749e-07
4.63716e-07
4.02082e-07
3.46972e-07
2.98205e-07
2.55308e-07
2.17823e-07
1.85096e-07
1.56713e-07
1.31963e-07
1.10663e-07
9.20129e-08
7.61942e-08
6.21086e-08
5.05056e-08
3.96673e-08
3.12881e-08
2.24342e-08
1.70544e-08
7.86192e-09
8.7921e-09
-7.70881e-06
-7.64951e-06
-7.585e-06
-7.50199e-06
-7.39989e-06
-7.27478e-06
-7.12364e-06
-6.94428e-06
-6.73367e-06
-6.48881e-06
-6.20752e-06
-5.88839e-06
-5.53103e-06
-5.13633e-06
-4.70669e-06
-4.2462e-06
-3.7606e-06
-3.25741e-06
-2.74514e-06
-2.23404e-06
-1.73462e-06
-1.25742e-06
-8.11855e-07
-4.06044e-07
-4.69986e-08
2.60454e-07
5.13803e-07
7.12765e-07
8.59135e-07
9.56515e-07
1.00992e-06
1.02534e-06
1.00932e-06
9.68598e-07
9.09747e-07
8.3892e-07
7.61595e-07
6.82349e-07
6.04731e-07
5.3123e-07
4.63344e-07
4.01815e-07
3.46779e-07
2.98064e-07
2.55204e-07
2.17744e-07
1.85034e-07
1.56665e-07
1.31924e-07
1.10631e-07
9.19872e-08
7.61724e-08
6.20912e-08
5.04908e-08
3.96561e-08
3.1278e-08
2.24276e-08
1.70465e-08
7.86116e-09
8.78267e-09
-7.73319e-06
-7.66951e-06
-7.60636e-06
-7.52404e-06
-7.42291e-06
-7.299e-06
-7.14909e-06
-6.97079e-06
-6.76125e-06
-6.5175e-06
-6.23725e-06
-5.91902e-06
-5.56236e-06
-5.16813e-06
-4.73868e-06
-4.27808e-06
-3.79207e-06
-3.28807e-06
-2.77476e-06
-2.26236e-06
-1.76141e-06
-1.2825e-06
-8.35082e-07
-4.27331e-07
-6.6313e-08
2.43125e-07
4.98427e-07
6.99281e-07
8.47456e-07
9.46537e-07
1.00153e-06
1.0184e-06
1.00369e-06
9.64119e-07
9.06258e-07
8.36255e-07
7.59596e-07
6.80873e-07
6.03655e-07
5.30452e-07
4.62785e-07
4.01413e-07
3.4649e-07
2.97852e-07
2.55047e-07
2.17626e-07
1.84942e-07
1.56592e-07
1.31866e-07
1.10584e-07
9.19485e-08
7.61399e-08
6.20651e-08
5.04686e-08
3.96391e-08
3.1263e-08
2.2418e-08
1.70352e-08
7.86038e-09
8.76882e-09
-7.76424e-06
-7.69477e-06
-7.63355e-06
-7.55216e-06
-7.45234e-06
-7.32992e-06
-7.18165e-06
-7.00491e-06
-6.79688e-06
-6.55461e-06
-6.27576e-06
-5.95875e-06
-5.60308e-06
-5.20951e-06
-4.78035e-06
-4.31965e-06
-3.83317e-06
-3.32818e-06
-2.81355e-06
-2.29949e-06
-1.79658e-06
-1.31546e-06
-8.65636e-07
-4.55361e-07
-9.17678e-08
2.20267e-07
4.7813e-07
6.81468e-07
8.32018e-07
9.3334e-07
9.90416e-07
1.0092e-06
9.96225e-07
9.58176e-07
9.01625e-07
8.32714e-07
7.56939e-07
6.7891e-07
6.02224e-07
5.29418e-07
4.62042e-07
4.0088e-07
3.46104e-07
2.97571e-07
2.54838e-07
2.17468e-07
1.8482e-07
1.56495e-07
1.31788e-07
1.1052e-07
9.18968e-08
7.60965e-08
6.20301e-08
5.04389e-08
3.96164e-08
3.12431e-08
2.24055e-08
1.70204e-08
7.85956e-09
8.75059e-09
-7.80083e-06
-7.72422e-06
-7.66558e-06
-7.58536e-06
-7.48721e-06
-7.36659e-06
-7.22034e-06
-7.04562e-06
-6.83955e-06
-6.59919e-06
-6.32212e-06
-6.0067e-06
-5.65231e-06
-5.25965e-06
-4.83095e-06
-4.37025e-06
-3.88323e-06
-3.37716e-06
-2.861e-06
-2.34498e-06
-1.83972e-06
-1.35595e-06
-9.03215e-07
-4.89877e-07
-1.23144e-07
1.92066e-07
4.53069e-07
6.59457e-07
8.12926e-07
9.17008e-07
9.76656e-07
9.97808e-07
9.86963e-07
9.50798e-07
8.95867e-07
8.2831e-07
7.53631e-07
6.76465e-07
6.0044e-07
5.28128e-07
4.61115e-07
4.00214e-07
3.45624e-07
2.9722e-07
2.54577e-07
2.1727e-07
1.84667e-07
1.56375e-07
1.31691e-07
1.10441e-07
9.18322e-08
7.60423e-08
6.19863e-08
5.04017e-08
3.9588e-08
3.12184e-08
2.23899e-08
1.7002e-08
7.8587e-09
8.72797e-09
-7.84182e-06
-7.75658e-06
-7.70132e-06
-7.62247e-06
-7.52638e-06
-7.40785e-06
-7.26401e-06
-7.09176e-06
-6.88812e-06
-6.65012e-06
-6.37526e-06
-6.06181e-06
-5.70907e-06
-5.31761e-06
-4.8896e-06
-4.42902e-06
-3.94148e-06
-3.43434e-06
-2.91651e-06
-2.39829e-06
-1.89037e-06
-1.40355e-06
-9.4747e-07
-5.30581e-07
-1.60189e-07
1.58736e-07
4.23422e-07
6.33397e-07
7.90306e-07
8.97642e-07
9.60327e-07
9.84272e-07
9.75951e-07
9.42016e-07
8.89007e-07
8.23057e-07
7.49683e-07
6.73545e-07
5.98308e-07
5.26586e-07
4.60006e-07
3.99417e-07
3.45048e-07
2.968e-07
2.54265e-07
2.17034e-07
1.84484e-07
1.5623e-07
1.31575e-07
1.10346e-07
9.17547e-08
7.59773e-08
6.19337e-08
5.03572e-08
3.95538e-08
3.11888e-08
2.23714e-08
1.69801e-08
7.8578e-09
8.70098e-09
-7.88635e-06
-7.7904e-06
-7.73954e-06
-7.6623e-06
-7.56856e-06
-7.45249e-06
-7.31143e-06
-7.14209e-06
-6.94134e-06
-6.70615e-06
-6.43396e-06
-6.12292e-06
-5.77221e-06
-5.38233e-06
-4.9553e-06
-4.49501e-06
-4.00713e-06
-3.49893e-06
-2.97938e-06
-2.45881e-06
-1.948e-06
-1.45782e-06
-9.98004e-07
-5.77138e-07
-2.02616e-07
1.20517e-07
3.89391e-07
6.03457e-07
7.64296e-07
8.75355e-07
9.41519e-07
9.68666e-07
9.6324e-07
9.31868e-07
8.8107e-07
8.16973e-07
7.45104e-07
6.70155e-07
5.95832e-07
5.24794e-07
4.58717e-07
3.9849e-07
3.44379e-07
2.96311e-07
2.53901e-07
2.16759e-07
1.8427e-07
1.56061e-07
1.31439e-07
1.10235e-07
9.16643e-08
7.59016e-08
6.18723e-08
5.03051e-08
3.95139e-08
3.11543e-08
2.23498e-08
1.69546e-08
7.85685e-09
8.66959e-09
-7.93436e-06
-7.82383e-06
-7.77907e-06
-7.70359e-06
-7.61245e-06