/*--------------------------------*- C++ -*----------------------------------*\
| =========                 |                                                 |
| \\      /  F ield         | foam-extend: Open Source CFD                    |
|  \\    /   O peration     | Version:     4.0                                |
|   \\  /    A nd           | Web:         http://www.foam-extend.org         |
|    \\/     M anipulation  |                                                 |
\*---------------------------------------------------------------------------*/
FoamFile
{
    version     2.0;
    format      ascii;
    class       surfaceScalarField;
    location    "85";
    object      phi;
}
// * * * * * * * * * * * * * * * * * * * * * * * * * * * * * * * * * * * * * //

dimensions      [0 3 -1 0 0 0 0];

internalField   nonuniform List<scalar> 
71520
(
-1.52349e-10
1.52236e-10
1.12485e-13
-6.15203e-10
4.62448e-10
4.06356e-13
-1.41331e-09
7.97312e-10
7.98298e-13
-2.57195e-09
1.15732e-09
1.30704e-12
-4.11676e-09
1.54286e-09
1.95351e-12
-6.0737e-09
1.95418e-09
2.76081e-12
-8.46892e-09
2.39147e-09
3.75461e-12
-1.13287e-08
2.8548e-09
4.96291e-12
-1.46793e-08
3.34416e-09
6.41603e-12
-1.85469e-08
3.85946e-09
8.14682e-12
-2.29575e-08
4.40049e-09
1.01904e-11
-2.79371e-08
4.96698e-09
1.25837e-11
-3.3511e-08
5.55856e-09
1.53661e-11
-3.97044e-08
6.17478e-09
1.85787e-11
-4.65418e-08
6.81509e-09
2.22651e-11
-5.4047e-08
7.47877e-09
2.64702e-11
-6.22433e-08
8.16501e-09
3.12416e-11
-7.11527e-08
8.87276e-09
3.66294e-11
-8.0796e-08
9.60068e-09
4.26862e-11
-9.11924e-08
1.03469e-08
4.94678e-11
-1.02359e-07
1.11091e-08
5.70338e-11
-1.14308e-07
1.18839e-08
6.54475e-11
-1.27049e-07
1.26665e-08
7.47762e-11
-1.40585e-07
1.34504e-08
8.5089e-11
-1.54908e-07
1.42269e-08
9.64558e-11
-1.70001e-07
1.49838e-08
1.08944e-10
-1.85829e-07
1.57055e-08
1.22613e-10
-2.02337e-07
1.63704e-08
1.37507e-10
-2.19436e-07
1.69455e-08
1.53639e-10
1.73812e-08
-2.36988e-07
1.70981e-10
-1.50389e-10
3.02625e-10
-6.0737e-10
9.19428e-10
-1.39545e-09
1.58539e-09
-2.53963e-09
2.30151e-09
-4.0653e-09
3.06852e-09
-5.9981e-09
3.88698e-09
-8.36383e-09
4.7572e-09
-1.11884e-08
5.67936e-09
-1.44976e-08
6.65339e-09
-1.83172e-08
7.67908e-09
-2.26727e-08
8.75598e-09
-2.75892e-08
9.88349e-09
-3.30915e-08
1.10608e-08
-3.92037e-08
1.2287e-08
-4.59493e-08
1.35607e-08
-5.3351e-08
1.48805e-08
-6.14305e-08
1.62445e-08
-7.02084e-08
1.76506e-08
-7.97033e-08
1.90957e-08
-8.99323e-08
2.05759e-08
-1.00909e-07
2.20861e-08
-1.12645e-07
2.36191e-08
-1.25143e-07
2.51652e-08
-1.38404e-07
2.67108e-08
-1.52414e-07
2.82376e-08
-1.67152e-07
2.9721e-08
-1.82575e-07
3.11287e-08
-1.98621e-07
3.24167e-08
-2.15195e-07
3.35195e-08
3.43369e-08
-2.32151e-07
-1.46522e-10
4.49147e-10
-5.91901e-10
1.36481e-09
-1.36016e-09
2.35365e-09
-2.47578e-09
3.41713e-09
-3.96358e-09
4.55633e-09
-5.84861e-09
5.772e-09
-8.156e-09
7.06459e-09
-1.09109e-08
8.43423e-09
-1.41382e-08
9.88075e-09
-1.78628e-08
1.14036e-08
-2.21089e-08
1.30021e-08
-2.69005e-08
1.46751e-08
-3.22607e-08
1.6421e-08
-3.8212e-08
1.82382e-08
-4.47757e-08
2.01244e-08
-5.19721e-08
2.20769e-08
-5.98202e-08
2.40926e-08
-6.83371e-08
2.61675e-08
-7.75378e-08
2.82964e-08
-8.74348e-08
3.04728e-08
-9.80366e-08
3.2688e-08
-1.09348e-07
3.49301e-08
-1.21366e-07
3.71834e-08
-1.34081e-07
3.94262e-08
-1.47473e-07
4.16293e-08
-1.61506e-07
4.37544e-08
-1.76128e-07
4.57508e-08
-1.91262e-07
4.75505e-08
-2.06798e-07
4.90552e-08
5.01126e-08
-2.22573e-07
-1.40849e-10
5.89995e-10
-5.69194e-10
1.79315e-09
-1.30833e-09
3.09278e-09
-2.38196e-09
4.49076e-09
-3.81407e-09
5.98844e-09
-5.62879e-09
7.58673e-09
-7.85026e-09
9.28606e-09
-1.05025e-08
1.10864e-08
-1.36091e-08
1.29874e-08
-1.71935e-08
1.49881e-08
-2.12784e-08
1.7087e-08
-2.58855e-08
1.92822e-08
-3.1036e-08
2.15715e-08
-3.67496e-08
2.39517e-08
-4.30445e-08
2.64194e-08
-4.99377e-08
2.89701e-08
-5.74438e-08
3.15987e-08
-6.55752e-08
3.42988e-08
-7.43412e-08
3.70624e-08
-8.37475e-08
3.98792e-08
-9.37954e-08
4.27358e-08
-1.0448e-07
4.56146e-08
-1.15789e-07
4.84922e-08
-1.277e-07
5.13373e-08
-1.40179e-07
5.41083e-08
-1.53175e-07
5.67508e-08
-1.66618e-07
5.91936e-08
-1.8041e-07
6.13422e-08
-1.94419e-07
6.30648e-08
6.41513e-08
-2.08458e-07
-1.33514e-10
7.23509e-10
-5.39817e-10
2.19945e-09
-1.24123e-09
3.79419e-09
-2.26045e-09
5.50997e-09
-3.62033e-09
7.34832e-09
-5.34379e-09
9.31019e-09
-7.45364e-09
1.13959e-08
-9.97239e-09
1.36052e-08
-1.29221e-08
1.59371e-08
-1.6324e-08
1.839e-08
-2.01987e-08
2.09617e-08
-2.45656e-08
2.36491e-08
-2.94426e-08
2.64485e-08
-3.4846e-08
2.93552e-08
-4.07904e-08
3.23637e-08
-4.72878e-08
3.54675e-08
-5.43475e-08
3.86584e-08
-6.19756e-08
4.19269e-08
-7.01741e-08
4.5261e-08
-7.89403e-08
4.86454e-08
-8.82652e-08
5.20607e-08
-9.81326e-08
5.5482e-08
-1.08517e-07
5.88763e-08
-1.1938e-07
6.22007e-08
-1.30671e-07
6.5399e-08
-1.42318e-07
6.83982e-08
-1.54229e-07
7.11046e-08
-1.66281e-07
7.33938e-08
-1.78313e-07
7.50968e-08
7.59354e-08
-1.90097e-07
-1.24703e-10
8.48212e-10
-5.04498e-10
2.57925e-09
-1.16051e-09
4.45021e-09
-2.11415e-09
6.4636e-09
-3.3869e-09
8.62108e-09
-5.00019e-09
1.09235e-08
-6.97514e-09
1.33709e-08
-9.33243e-09
1.59625e-08
-1.2092e-08
1.86966e-08
-1.52728e-08
2.15709e-08
-1.88927e-08
2.45816e-08
-2.29679e-08
2.77243e-08
-2.75127e-08
3.09933e-08
-3.25394e-08
3.43819e-08
-3.80575e-08
3.78819e-08
-4.40736e-08
4.14835e-08
-5.05903e-08
4.51752e-08
-5.76063e-08
4.89429e-08
-6.51146e-08
5.27693e-08
-7.31022e-08
5.6633e-08
-8.15484e-08
6.05069e-08
-9.04229e-08
6.43565e-08
-9.9684e-08
6.81374e-08
-1.09276e-07
7.17927e-08
-1.19126e-07
7.52489e-08
-1.29139e-07
7.84117e-08
-1.39196e-07
8.11615e-08
-1.49144e-07
8.33417e-08
-1.58796e-07
8.47488e-08
8.5004e-08
-1.67865e-07
-1.14634e-10
9.62845e-10
-4.64089e-10
2.9287e-09
-1.06808e-09
5.0542e-09
-1.94647e-09
7.342e-09
-3.11914e-09
9.79374e-09
-4.6057e-09
1.241e-08
-6.42532e-09
1.51905e-08
-8.59648e-09
1.81336e-08
-1.11366e-08
2.12368e-08
-1.4062e-08
2.44962e-08
-1.73872e-08
2.79067e-08
-2.11247e-08
3.14618e-08
-2.52847e-08
3.51534e-08
-2.98746e-08
3.89718e-08
-3.48984e-08
4.29056e-08
-4.0356e-08
4.69411e-08
-4.62426e-08
5.10618e-08
-5.2548e-08
5.52483e-08
-5.92552e-08
5.94765e-08
-6.63393e-08
6.37172e-08
-7.37661e-08
6.79336e-08
-8.14894e-08
7.20798e-08
-8.94495e-08
7.60976e-08
-9.757e-08
7.99131e-08
-1.05754e-07
8.34328e-08
-1.1388e-07
8.65376e-08
-1.21797e-07
8.90791e-08
-1.2932e-07
9.08637e-08
-1.36241e-07
9.16706e-08
9.09571e-08
-1.42194e-07
-1.03547e-10
1.06639e-09
-4.19538e-10
3.24469e-09
-9.66051e-10
5.60071e-09
-1.76122e-09
8.13717e-09
-2.823e-09
1.08555e-08
-4.16896e-09
1.3756e-08
-5.816e-09
1.68375e-08
-7.78006e-09
2.00977e-08
-1.00758e-08
2.35325e-08
-1.27162e-08
2.71366e-08
-1.57122e-08
3.09027e-08
-1.90722e-08
3.48218e-08
-2.28016e-08
3.88828e-08
-2.69024e-08
4.30726e-08
-3.1372e-08
4.73753e-08
-3.62034e-08
5.17724e-08
-4.13831e-08
5.62416e-08
-4.68913e-08
6.07565e-08
-5.26998e-08
6.5285e-08
-5.87706e-08
6.9788e-08
-6.50543e-08
7.42173e-08
-7.14878e-08
7.85133e-08
-7.79915e-08
8.26013e-08
-8.44663e-08
8.63879e-08
-9.07895e-08
8.97561e-08
-9.68102e-08
9.25583e-08
-1.02346e-07
9.46145e-08
-1.07172e-07
9.56904e-08
-1.11061e-07
9.5559e-08
9.34533e-08
-1.13557e-07
-9.17001e-11
1.15809e-09
-3.71856e-10
3.52485e-09
-8.56714e-10
6.08557e-09
-1.56244e-09
8.84289e-09
-2.50485e-09
1.17979e-08
-3.6992e-09
1.49504e-08
-5.15983e-09
1.82982e-08
-6.89983e-09
2.18377e-08
-8.93067e-09
2.55634e-08
-1.12618e-08
2.94677e-08
-1.39001e-08
3.3541e-08
-1.68493e-08
3.7771e-08
-2.01097e-08
4.21432e-08
-2.3677e-08
4.66399e-08
-2.7542e-08
5.12403e-08
-3.16894e-08
5.59198e-08
-3.6097e-08
6.06492e-08
-4.07342e-08
6.53936e-08
-4.55605e-08
7.01113e-08
-5.05241e-08
7.47516e-08
-5.55596e-08
7.92528e-08
-6.05854e-08
8.35391e-08
-6.55012e-08
8.75171e-08
-7.01839e-08
9.10705e-08
-7.4484e-08
9.40561e-08
-7.82195e-08
9.62939e-08
-8.1173e-08
9.75679e-08
-8.30874e-08
9.76048e-08
-8.37001e-08
9.61717e-08
9.22046e-08
-8.24513e-08
-7.93562e-11
1.23745e-09
-3.22078e-10
3.76757e-09
-7.42395e-10
6.50589e-09
-1.35429e-09
9.45478e-09
-2.17124e-09
1.26149e-08
-3.20592e-09
1.5985e-08
-4.46982e-09
1.95621e-08
-5.97293e-09
2.33408e-08
-7.72321e-09
2.73137e-08
-9.72617e-09
3.14707e-08
-1.19843e-08
3.57991e-08
-1.44963e-08
4.0283e-08
-1.72567e-08
4.49036e-08
-2.02549e-08
4.96381e-08
-2.34741e-08
5.44596e-08
-2.68907e-08
5.93364e-08
-3.04725e-08
6.4231e-08
-3.41778e-08
6.90989e-08
-3.79533e-08
7.38867e-08
-4.17325e-08
7.85307e-08
-4.54332e-08
8.29536e-08
-4.8955e-08
8.70609e-08
-5.2176e-08
9.07382e-08
-5.49489e-08
9.38434e-08
-5.70964e-08
9.62037e-08
-5.84063e-08
9.76038e-08
-5.86221e-08
9.77837e-08
-5.74438e-08
9.64265e-08
-5.46114e-08
9.33393e-08
8.70139e-08
-4.94208e-08
-6.67747e-11
1.30422e-09
-2.71228e-10
3.97202e-09
-6.25399e-10
6.86006e-09
-1.14091e-09
9.97029e-09
-1.82867e-09
1.33027e-08
-2.69853e-09
1.68549e-08
-3.75893e-09
2.06225e-08
-5.01643e-09
2.45983e-08
-6.47523e-09
2.87725e-08
-8.13658e-09
3.3132e-08
-9.99817e-09
3.76607e-08
-1.20534e-08
4.23383e-08
-1.42908e-08
4.71409e-08
-1.66927e-08
5.20399e-08
-1.92346e-08
5.70015e-08
-2.18839e-08
6.19857e-08
-2.45981e-08
6.69453e-08
-2.73238e-08
7.18246e-08
-2.99945e-08
7.65574e-08
-3.25284e-08
8.10646e-08
-3.48265e-08
8.52518e-08
-3.67693e-08
8.90036e-08
-3.82129e-08
9.21818e-08
-3.89861e-08
9.46166e-08
-3.88838e-08
9.61014e-08
-3.76633e-08
9.63833e-08
-3.50333e-08
9.51537e-08
-3.06176e-08
9.20107e-08
-2.41463e-08
8.68681e-08
7.807e-08
-1.52025e-08
-5.42017e-11
1.35843e-09
-2.20276e-10
4.1381e-09
-5.07921e-10
7.1477e-09
-9.26222e-10
1.03886e-08
-1.48332e-09
1.38598e-08
-2.18607e-09
1.75576e-08
-3.03958e-09
2.1476e-08
-4.04677e-09
2.56055e-08
-5.20776e-09
2.99335e-08
-6.5193e-09
3.44436e-08
-7.97401e-09
3.91154e-08
-9.55965e-09
4.39239e-08
-1.12583e-08
4.88395e-08
-1.30451e-08
5.38268e-08
-1.48874e-08
5.88438e-08
-1.67432e-08
6.38414e-08
-1.85594e-08
6.87615e-08
-2.02705e-08
7.35357e-08
-2.17964e-08
7.80833e-08
-2.30403e-08
8.23085e-08
-2.3886e-08
8.60975e-08
-2.41951e-08
8.93127e-08
-2.38017e-08
9.17884e-08
-2.25097e-08
9.33245e-08
-2.00866e-08
9.36783e-08
-1.626e-08
9.25567e-08
-1.07193e-08
8.96131e-08
-3.14539e-09
8.44368e-08
7.40233e-09
7.63204e-08
6.52236e-08
2.02488e-08
-4.18594e-11
1.40028e-09
-1.70104e-10
4.26634e-09
-3.91961e-10
7.36956e-09
-7.13825e-10
1.07105e-08
-1.14091e-09
1.42868e-08
-1.67685e-09
1.80936e-08
-2.32325e-09
2.21224e-08
-3.07911e-09
2.63613e-08
-3.94028e-09
3.07946e-08
-4.89873e-09
3.5402e-08
-5.94177e-09
4.01584e-08
-7.05122e-09
4.50334e-08
-8.20251e-09
4.99908e-08
-9.36334e-09
5.49876e-08
-1.04924e-08
5.99729e-08
-1.15379e-08
6.48869e-08
-1.24361e-08
6.96597e-08
-1.31092e-08
7.42087e-08
-1.34637e-08
7.84378e-08
-1.33879e-08
8.22328e-08
-1.27482e-08
8.54578e-08
-1.13863e-08
8.79507e-08
-9.11498e-09
8.95172e-08
-5.71402e-09
8.99236e-08
-9.24463e-10
8.88888e-08
5.55651e-09
8.60757e-08
1.40858e-08
8.10838e-08
2.50986e-08
7.34239e-08
3.8995e-08
6.2424e-08
4.77604e-08
5.64582e-08
-2.99372e-11
1.43022e-09
-1.21472e-10
4.35787e-09
-2.79247e-10
7.52734e-09
-5.06844e-10
1.09381e-08
-8.064e-10
1.45864e-08
-1.17818e-09
1.84654e-08
-1.62004e-09
2.25642e-08
-2.12691e-09
2.68682e-08
-2.6901e-09
3.13578e-08
-3.29661e-09
3.60085e-08
-3.92821e-09
4.079e-08
-4.56066e-09
4.56658e-08
-5.16241e-09
5.05926e-08
-5.69321e-09
5.55184e-08
-6.10288e-09
6.03826e-08
-6.32984e-09
6.51139e-08
-6.29943e-09
6.96293e-08
-5.92205e-09
7.38314e-08
-5.09069e-09
7.76064e-08
-3.67787e-09
8.082e-08
-1.53291e-09
8.33128e-08
1.52166e-09
8.48962e-08
5.69406e-09
8.53448e-08
1.12281e-08
8.43895e-08
1.84086e-08
8.17082e-08
2.75681e-08
7.69163e-08
3.90958e-08
6.95561e-08
5.34448e-08
5.9075e-08
7.10766e-08
4.47922e-08
2.60913e-08
9.27456e-08
-1.85874e-11
1.44881e-09
-7.4993e-11
4.41428e-09
-1.71188e-10
7.62353e-09
-3.0783e-10
1.10747e-08
-4.83859e-10
1.47624e-08
-6.96027e-10
1.86775e-08
-9.38341e-10
2.28065e-08
-1.20142e-09
2.71313e-08
-1.47179e-09
3.16282e-08
-1.73126e-09
3.6268e-08
-1.95616e-09
4.10149e-08
-2.1157e-09
4.58254e-08
-2.17073e-09
5.06476e-08
-2.07289e-09
5.54206e-08
-1.7633e-09
6.0073e-08
-1.1708e-09
6.45214e-08
-2.10009e-10
6.86685e-08
1.221e-09
7.24004e-08
3.24332e-09
7.55841e-08
5.99971e-09
7.80636e-08
9.65776e-09
7.96548e-08
1.44137e-08
8.01403e-08
2.04963e-08
7.92621e-08
2.81723e-08
7.67135e-08
3.77514e-08
7.21291e-08
4.95936e-08
6.50741e-08
6.41164e-08
5.50332e-08
8.18015e-08
4.13899e-08
1.03176e-07
2.34174e-08
2.7514e-10
1.28992e-07
-7.93428e-12
1.45674e-09
-3.11704e-11
4.43751e-09
-6.89246e-11
7.66129e-09
-1.18823e-10
1.11246e-08
-1.76482e-10
1.48201e-08
-2.35012e-10
1.87361e-08
-2.84443e-10
2.2856e-08
-3.11062e-10
2.71579e-08
-2.96626e-10
3.16137e-08
-2.17429e-10
3.61888e-08
-4.33745e-11
4.08408e-08
2.63133e-10
4.55189e-08
7.48219e-10
5.01625e-08
1.468e-09
5.47008e-08
2.49024e-09
5.90507e-08
3.89621e-09
6.31154e-08
5.78263e-09
6.6782e-08
8.26391e-09
6.99191e-08
1.14748e-08
7.23732e-08
1.55731e-08
7.39652e-08
2.07433e-08
7.44846e-08
2.71999e-08
7.36837e-08
3.51921e-08
7.127e-08
4.50083e-08
6.68973e-08
5.69823e-08
6.01551e-08
7.14999e-08
5.05565e-08
8.90065e-08
3.75267e-08
1.10015e-07
2.03811e-08
1.35097e-07
-1.6644e-09
-2.96511e-08
1.65023e-07
1.89174e-12
1.45485e-09
9.51945e-12
4.42988e-09
2.64982e-11
7.64431e-09
5.83204e-11
1.10928e-08
1.12802e-10
1.47656e-08
2.00607e-10
1.86482e-08
3.35874e-10
2.27207e-08
5.36915e-10
2.69568e-08
8.27029e-10
3.13236e-08
1.23544e-09
3.57804e-08
1.79842e-09
4.02779e-08
2.56021e-09
4.47571e-08
3.57441e-09
4.91483e-08
4.90543e-09
5.33698e-08
6.63024e-09
5.73259e-08
8.84028e-09
6.09054e-08
1.16436e-08
6.39788e-08
1.51669e-08
6.63957e-08
1.95587e-08
6.79814e-08
2.4992e-08
6.85319e-08
3.16678e-08
6.78088e-08
3.98187e-08
6.55327e-08
4.97136e-08
6.13751e-08
6.16623e-08
5.49486e-08
7.60216e-08
4.57958e-08
9.32017e-08
3.33764e-08
1.13675e-07
1.70538e-08
1.37983e-07
-3.92732e-09
1.66734e-07
-3.04152e-08
-6.36368e-08
2.00719e-07
1.08671e-11
1.44398e-09
4.69567e-11
4.3938e-09
1.14779e-10
7.57649e-09
2.23022e-10
1.09845e-08
3.83028e-10
1.46056e-08
6.09353e-10
1.84219e-08
9.2042e-10
2.24096e-08
1.33926e-09
2.6538e-08
1.89438e-09
3.07685e-08
2.6207e-09
3.50541e-08
3.5607e-09
3.93379e-08
4.76555e-09
4.35522e-08
6.29648e-09
4.76174e-08
8.22638e-09
5.14399e-08
1.06416e-08
5.49107e-08
1.36439e-08
5.79031e-08
1.73527e-08
6.027e-08
2.19072e-08
6.18412e-08
2.74698e-08
6.24189e-08
3.42285e-08
6.17732e-08
4.24008e-08
5.96365e-08
5.22373e-08
5.56962e-08
6.40262e-08
4.95862e-08
7.8098e-08
4.08768e-08
9.48315e-08
2.90623e-08
1.1466e-07
1.35475e-08
1.38081e-07
-6.36641e-09
1.6566e-07
-3.1507e-08
1.9804e-07
-6.27949e-08
-1.01635e-07
2.36038e-07
1.90138e-11
1.42497e-09
8.11995e-11
4.33161e-09
1.96008e-10
7.46168e-09
3.75383e-10
1.08052e-08
6.3427e-10
1.43467e-08
9.91206e-10
1.8065e-08
1.469e-09
2.19318e-08
2.09554e-09
2.59115e-08
2.90463e-09
2.99594e-08
3.93708e-09
3.40216e-08
5.24176e-09
3.80332e-08
6.87694e-09
4.19171e-08
8.91166e-09
4.55827e-08
1.14275e-08
4.89241e-08
1.45204e-08
5.18178e-08
1.83025e-08
5.41209e-08
2.29048e-08
5.56677e-08
2.84793e-08
5.62667e-08
3.52022e-08
5.5696e-08
4.32768e-08
5.36986e-08
5.2937e-08
4.99763e-08
6.44514e-08
4.41819e-08
7.8127e-08
3.59106e-08
9.43147e-08
2.46891e-08
1.13414e-07
9.96278e-09
1.3588e-07
-8.91875e-09
1.6223e-07
-3.27163e-08
1.93055e-07
-6.23319e-08
2.29026e-07
-9.87653e-08
-1.43596e-07
2.70987e-07
2.63757e-11
1.3986e-09
1.12418e-10
4.24557e-09
2.70553e-10
7.30354e-09
5.16034e-10
1.05597e-08
8.67478e-10
1.39953e-08
1.34749e-09
1.7585e-08
1.98336e-09
2.1296e-08
2.80793e-09
2.50869e-08
3.86048e-09
2.89069e-08
5.1878e-09
3.26943e-08
6.84539e-09
3.63756e-08
8.89877e-09
3.98637e-08
1.1425e-08
4.30564e-08
1.45147e-08
4.58344e-08
1.82734e-08
4.80592e-08
2.2824e-08
4.95703e-08
2.83093e-08
5.01825e-08
3.48942e-08
4.96817e-08
4.2769e-08
4.78211e-08
5.21525e-08
4.43151e-08
6.32952e-08
3.88336e-08
7.64833e-08
3.09938e-08
9.20429e-08
2.0351e-08
1.10344e-07
6.38778e-09
1.31806e-07
-1.14992e-08
1.56902e-07
-3.4015e-08
1.86169e-07
-6.19833e-08
2.20219e-07
-9.63812e-08
2.59743e-07
-1.3829e-07
-1.89466e-07
3.05613e-07
3.30355e-11
1.36556e-09
1.4093e-10
4.13767e-09
3.39117e-10
7.10535e-09
6.46208e-10
1.02526e-08
1.08455e-09
1.35569e-08
1.68089e-09
1.69886e-08
2.46712e-09
2.05097e-08
3.48114e-09
2.40729e-08
4.76783e-09
2.76202e-08
6.38014e-09
3.1082e-08
8.38035e-09
3.43754e-08
1.08415e-08
3.74026e-08
1.3849e-08
4.00489e-08
1.75023e-08
4.2181e-08
2.19173e-08
4.36442e-08
2.72277e-08
4.42599e-08
3.35884e-08
4.38218e-08
4.11776e-08
4.20925e-08
5.02001e-08
3.87986e-08
6.08901e-08
3.36251e-08
7.35149e-08
2.62087e-08
8.83787e-08
1.613e-08
1.05826e-07
2.90399e-09
1.26244e-07
-1.40307e-08
1.5007e-07
-3.53255e-08
1.77795e-07
-6.17401e-08
2.09972e-07
-9.416e-08
2.47226e-07
-1.33635e-07
2.90266e-07
-1.8133e-07
-2.39175e-07
3.39976e-07
3.91086e-11
1.32645e-09
1.67182e-10
4.0096e-09
4.02695e-10
6.86984e-09
7.67657e-10
9.88762e-09
1.28821e-09
1.30364e-08
1.99533e-09
1.62815e-08
2.9256e-09
1.95795e-08
4.12209e-09
2.28764e-08
5.63543e-09
2.61068e-08
7.5249e-09
2.91925e-08
9.85977e-09
3.20405e-08
1.27208e-08
3.45415e-08
1.6202e-08
3.65678e-08
2.04122e-08
3.79708e-08
2.54773e-08
3.85791e-08
3.15428e-08
3.81944e-08
3.87758e-08
3.65888e-08
4.73681e-08
3.35002e-08
5.75393e-08
2.86275e-08
6.95394e-08
2.1625e-08
8.36528e-08
1.20954e-08
1.00201e-07
-4.18036e-10
1.19545e-07
-1.64402e-08
1.4209e-07
-3.65758e-08
1.68289e-07
-6.15244e-08
1.98647e-07
-9.2098e-08
2.33728e-07
-1.29241e-07
2.74164e-07
-1.74072e-07
3.20671e-07
-2.27837e-07
-2.9263e-07
3.74126e-07
4.47367e-11
1.28172e-09
1.91728e-10
3.86261e-09
4.62519e-10
6.59905e-09
8.82567e-10
9.46757e-09
1.48188e-09
1.24371e-08
2.29572e-09
1.54677e-08
3.36547e-09
1.85097e-08
4.73952e-09
2.15023e-08
6.47438e-09
2.4372e-08
8.63583e-09
2.70311e-08
1.13004e-08
2.9376e-08
1.45568e-08
3.12851e-08
1.85078e-08
3.26168e-08
2.32719e-08
3.32067e-08
2.89858e-08
3.28652e-08
3.58065e-08
3.13737e-08
4.3914e-08
2.84813e-08
5.35141e-08
2.39001e-08
6.48414e-08
1.73002e-08
7.8162e-08
8.30429e-09
9.37771e-08
-3.51966e-09
1.12024e-07
-1.86653e-08
1.33281e-07
-3.76974e-08
1.5797e-07
-6.12638e-08
1.86554e-07
-9.01093e-08
2.1955e-07
-1.25094e-07
2.57525e-07
-1.67215e-07
3.01108e-07
-2.17655e-07
3.51014e-07
-2.77743e-07
-3.49698e-07
4.08082e-07
5.00811e-11
1.23163e-09
2.15196e-10
3.69749e-09
5.19997e-10
6.29425e-09
9.93439e-10
8.99413e-09
1.66945e-09
1.1761e-08
2.5877e-09
1.45494e-08
3.79444e-09
1.7303e-08
5.34353e-09
1.99532e-08
7.2975e-09
2.2418e-08
9.72887e-09
2.45997e-08
1.27216e-08
2.63833e-08
1.63726e-08
2.76341e-08
2.07937e-08
2.81957e-08
2.61135e-08
2.78869e-08
3.24796e-08
2.64991e-08
4.00612e-08
2.37922e-08
4.90513e-08
1.94911e-08
5.96701e-08
1.32812e-08
7.21675e-08
4.80288e-09
8.68255e-08
-6.35373e-09
1.03961e-07
-2.06552e-08
1.23928e-07
-3.86324e-08
1.47121e-07
-6.08898e-08
1.73972e-07
-8.81154e-08
2.04957e-07
-1.21094e-07
2.40592e-07
-1.60728e-07
2.81438e-07
-2.08061e-07
3.28111e-07
-2.64328e-07
3.81314e-07
-3.30946e-07
-4.10183e-07
4.41799e-07
5.53152e-11
1.17632e-09
2.38265e-10
3.51454e-09
5.76648e-10
5.95587e-09
1.10297e-09
8.4678e-09
1.85516e-09
1.10088e-08
2.87737e-09
1.35272e-08
4.22086e-09
1.59595e-08
5.94505e-09
1.8229e-08
8.1187e-09
2.02444e-08
1.08212e-08
2.18972e-08
1.41443e-08
2.30602e-08
1.81933e-08
2.3585e-08
2.30895e-08
2.32995e-08
2.89716e-08
2.20048e-08
3.59987e-08
1.9472e-08
4.43522e-08
1.54386e-08
5.42389e-08
9.60443e-09
6.58934e-08
1.62677e-09
7.95804e-08
-8.88415e-09
9.55977e-08
-2.2371e-08
1.14278e-07
-3.93355e-08
1.35991e-07
-6.03457e-08
1.61144e-07
-8.60429e-08
1.9018e-07
-1.17151e-07
2.23577e-07
-1.54491e-07
2.61841e-07
-1.98993e-07
3.05518e-07
-2.51738e-07
3.5519e-07
-3.14e-07
4.11537e-07
-3.87294e-07
-4.73798e-07
4.75152e-07
6.06163e-11
1.1157e-09
2.61629e-10
3.31353e-09
6.34031e-10
5.58346e-09
1.21394e-09
7.88789e-09
2.04337e-09
1.01794e-08
3.17102e-09
1.23996e-08
4.6533e-09
1.44772e-08
6.55534e-09
1.6327e-08
8.9523e-09
1.78474e-08
1.19307e-08
1.89187e-08
1.55902e-08
1.94008e-08
2.00447e-08
1.91305e-08
2.54251e-08
1.79191e-08
3.1881e-08
1.55489e-08
3.95829e-08
1.17701e-08
4.87249e-08
6.29654e-09
5.95275e-08
-1.19812e-09
7.22392e-08
-1.1085e-08
8.71399e-08
-2.37848e-08
1.04543e-07
-3.97738e-08
1.24796e-07
-5.95888e-08
1.48283e-07
-8.38329e-08
1.75422e-07
-1.13182e-07
2.06661e-07
-1.4839e-07
2.42472e-07
-1.90302e-07
2.83344e-07
-2.39866e-07
3.29784e-07
-2.98177e-07
3.82315e-07
-3.66531e-07
4.41586e-07
-4.46565e-07
-5.4012e-07
5.07908e-07
6.61585e-11
1.04954e-09
2.85972e-10
3.09371e-09
6.9368e-10
5.17576e-09
1.32908e-09
7.25248e-09
2.23834e-09
9.27017e-09
3.47483e-09
1.11631e-08
5.1002e-09
1.28518e-08
7.18547e-09
1.42417e-08
9.81234e-09
1.52205e-08
1.30747e-08
1.56564e-08
1.70801e-08
1.53954e-08
2.19516e-08
1.4259e-08
2.78299e-08
1.20408e-08
3.48754e-08
8.50347e-09
4.32704e-08
3.37506e-09
5.32219e-08
-3.65488e-09
6.49633e-08
-1.29395e-08
7.87575e-08
-2.48792e-08
9.48993e-08
-3.99266e-08
1.13716e-07
-5.8591e-08
1.35571e-07
-8.14434e-08
1.60859e-07
-1.0912e-07
1.90004e-07
-1.42327e-07
2.23456e-07
-1.81842e-07
2.61674e-07
-2.2852e-07
3.05116e-07
-2.83307e-07
3.54223e-07
-3.47284e-07
4.09416e-07
-4.21724e-07
4.71296e-07
-5.08445e-07
-6.08522e-07
5.39698e-07
7.21057e-11
9.77438e-10
3.11936e-10
2.85388e-09
7.57039e-10
4.73065e-09
1.45097e-09
6.55856e-09
2.44411e-09
8.27703e-09
3.79463e-09
9.81255e-09
5.56952e-09
1.1077e-08
7.84582e-09
1.19654e-08
1.0712e-08
1.23544e-08
1.42693e-08
1.20991e-08
1.86336e-08
1.10311e-08
2.39371e-08
8.95545e-09
3.03305e-08
5.64733e-09
3.79852e-08
8.48782e-10
4.70952e-08
-5.73496e-09
5.78799e-08
-1.44395e-08
7.0586e-08
-2.56456e-08
8.54904e-08
-3.97837e-08
1.02902e-07
-5.73379e-08
1.23161e-07
-7.88504e-08
1.46642e-07
-1.04925e-07
1.7375e-07
-1.36228e-07
2.04913e-07
-1.7349e-07
2.40577e-07
-2.17506e-07
2.81183e-07
-2.69126e-07
3.27142e-07
-3.29267e-07
3.78805e-07
-3.98947e-07
4.36405e-07
-4.79324e-07
5.00413e-07
-5.72453e-07
-6.78093e-07
5.69984e-07
7.86049e-11
8.98833e-10
3.401e-10
2.59239e-09
8.25406e-10
4.24535e-09
1.5819e-09
5.80206e-09
2.6643e-09
7.19463e-09
4.13563e-09
8.34122e-09
6.06836e-09
9.14422e-09
8.5457e-09
9.48809e-09
1.16629e-08
9.23718e-09
1.55288e-08
8.23313e-09
2.02678e-08
6.29216e-09
2.60212e-08
3.202e-09
3.29499e-08
-1.28137e-09
4.1236e-08
-7.43726e-09
5.1085e-08
-1.5584e-08
6.27288e-08
-2.60832e-08
7.64269e-08
-3.93438e-08
9.24692e-08
-5.5826e-08
1.11177e-07
-7.60453e-08
1.32902e-07
-1.00575e-07
1.58027e-07
-1.30051e-07
1.86964e-07
-1.65165e-07
2.20142e-07
-2.06668e-07
2.57999e-07
-2.55362e-07
3.00957e-07
-3.12084e-07
3.4938e-07
-3.7769e-07
4.03516e-07
-4.53083e-07
4.63312e-07
-5.3912e-07
5.28723e-07
-6.37864e-07
-7.47333e-07
5.97963e-07
8.57824e-11
8.13052e-10
3.70959e-10
2.30722e-09
8.99893e-10
3.71641e-09
1.72387e-09
4.97809e-09
2.90199e-09
6.01651e-09
4.50227e-09
6.74094e-09
6.60277e-09
7.04372e-09
9.29291e-09
6.79796e-09
1.26749e-08
5.85521e-09
1.68653e-08
4.04275e-09
2.19968e-08
1.16065e-09
2.82201e-08
-3.02134e-09
3.5706e-08
-8.76723e-09
4.46471e-08
-1.63784e-08
5.52606e-08
-2.61975e-08
6.77899e-08
-3.86125e-08
8.25067e-08
-5.40605e-08
9.97119e-08
-7.30312e-08
1.19737e-07
-9.60705e-08
1.42944e-07
-1.23782e-07
1.6972e-07
-1.56827e-07
2.00478e-07
-1.95923e-07
2.35645e-07
-2.41836e-07
2.7565e-07
-2.95367e-07
3.209e-07
-3.57334e-07
3.71739e-07
-4.28529e-07
4.28365e-07
-5.09709e-07
4.90541e-07
-6.01297e-07
5.57144e-07
-7.04467e-07
-8.12514e-07
6.22325e-07
9.37374e-11
7.19315e-10
4.04907e-10
1.99605e-09
9.81388e-10
3.13993e-09
1.87844e-09
4.08104e-09
3.15965e-09
4.73529e-09
4.89809e-09
5.0025e-09
7.17748e-09
4.76432e-09
1.00935e-08
3.8819e-09
1.37554e-08
2.1933e-09
1.82875e-08
-4.89307e-10
2.38308e-08
-4.38266e-09
3.05452e-08
-9.7357e-09
3.86111e-08
-1.68331e-08
4.82317e-08
-2.5999e-08
5.96349e-08
-3.76008e-08
7.3075e-08
-5.20526e-08
8.88339e-08
-6.98194e-08
1.07222e-07
-9.14197e-08
1.2858e-07
-1.17428e-07
1.53272e-07
-1.48474e-07
1.81688e-07
-1.85244e-07
2.14238e-07
-2.28472e-07
2.51337e-07
-2.78935e-07
2.93402e-07
-3.37432e-07
3.4083e-07
-4.04761e-07
3.93983e-07
-4.81682e-07
4.53144e-07
-5.6887e-07
5.18532e-07
-6.66684e-07
5.90193e-07
-7.76128e-07
-8.95217e-07
6.72897e-07
1.02549e-10
6.16766e-10
4.42245e-10
1.65635e-09
1.07056e-09
2.51162e-09
2.04678e-09
3.10482e-09
3.43907e-09
3.343e-09
5.32562e-09
3.11595e-09
7.79585e-09
2.29409e-09
1.09518e-08
7.25936e-10
1.49097e-08
-1.76457e-09
1.98014e-08
-5.38099e-09
2.57763e-08
-1.03576e-08
3.30031e-08
-1.69626e-08
4.1672e-08
-2.55019e-08
5.19957e-08
-3.63228e-08
6.42121e-08
-4.98171e-08
7.85849e-08
-6.64254e-08
9.54049e-08
-8.66394e-08
1.1499e-07
-1.11005e-07
1.37683e-07
-1.40121e-07
1.63851e-07
-1.74642e-07
1.93878e-07
-2.15271e-07
2.28161e-07
-2.62755e-07
2.67096e-07
-3.17871e-07
3.11069e-07
-3.81405e-07
3.6044e-07
-4.54132e-07
4.15526e-07
-5.36769e-07
4.76582e-07
-6.29926e-07
5.43881e-07
-7.33983e-07
6.17524e-07
-8.49771e-07
-9.74955e-07
6.97262e-07
1.1226e-10
5.04506e-10
4.83151e-10
1.28546e-09
1.16779e-09
1.82698e-09
2.22958e-09
2.04303e-09
3.74131e-09
1.83126e-09
5.78631e-09
1.07095e-09
8.45973e-09
-3.79327e-10
1.18699e-08
-2.68426e-09
1.614e-08
-6.03462e-09
2.14093e-08
-1.06503e-08
2.78355e-08
-1.67837e-08
3.55959e-08
-2.47229e-08
4.48892e-08
-3.47953e-08
5.59376e-08
-4.73712e-08
6.89875e-08
-6.2867e-08
8.43105e-08
-8.17484e-08
1.02204e-07
-1.04533e-07
1.22989e-07
-1.3179e-07
1.4701e-07
-1.64141e-07
1.74628e-07
-2.0226e-07
2.06216e-07
-2.46859e-07
2.42149e-07
-2.98688e-07
2.8279e-07
-3.58512e-07
3.28477e-07
-4.27091e-07
3.795e-07
-5.05155e-07
4.36073e-07
-5.93341e-07
4.98311e-07
-6.92164e-07
5.66229e-07
-8.01902e-07
6.39423e-07
-9.22964e-07
-1.05231e-06
7.16775e-07
1.22893e-10
3.81613e-10
5.27699e-10
8.80652e-10
1.27325e-09
1.08143e-09
2.42711e-09
8.89164e-10
4.06673e-09
1.91643e-10
6.28059e-09
-1.14291e-09
9.16952e-09
-3.26826e-09
1.28481e-08
-6.36286e-09
1.74463e-08
-1.06328e-08
2.31108e-08
-1.63149e-08
3.0007e-08
-2.36799e-08
3.83203e-08
-3.30362e-08
4.82576e-08
-4.47326e-08
6.00489e-08
-5.91625e-08
7.3948e-08
-7.6766e-08
9.02324e-08
-9.80328e-08
1.09203e-07
-1.23503e-07
1.31182e-07
-1.53769e-07
1.56509e-07
-1.89469e-07
1.85535e-07
-2.31286e-07
2.18614e-07
-2.79938e-07
2.5609e-07
-3.36164e-07
2.98281e-07
-4.00704e-07
3.45464e-07
-4.74274e-07
3.97833e-07
-5.57524e-07
4.55478e-07
-6.50986e-07
5.18357e-07
-7.55043e-07
5.86222e-07
-8.69767e-07
6.58379e-07
-9.95122e-07
-1.12759e-06
7.33666e-07
1.34443e-10
2.47169e-10
5.75867e-10
4.39227e-10
1.38687e-09
2.70435e-10
2.63922e-09
-3.6319e-10
4.41501e-09
-1.58415e-09
6.80786e-09
-3.53575e-09
9.92423e-09
-6.38463e-09
1.38849e-08
-1.03235e-08
1.88263e-08
-1.55742e-08
2.49023e-08
-2.23909e-08
3.22855e-08
-3.10631e-08
4.11686e-08
-4.19193e-08
5.1766e-08
-5.533e-08
6.43142e-08
-7.17108e-08
7.90725e-08
-9.15243e-08
9.63221e-08
-1.15282e-07
1.16365e-07
-1.43546e-07
1.3952e-07
-1.76923e-07
1.66117e-07
-2.16066e-07
1.96492e-07
-2.6166e-07
2.30971e-07
-3.14417e-07
2.69861e-07
-3.75054e-07
3.13428e-07
-4.4427e-07
3.61866e-07
-5.22712e-07
4.15271e-07
-6.10929e-07
4.73613e-07
-7.09329e-07
5.36695e-07
-8.18125e-07
6.04078e-07
-9.37149e-07
6.74942e-07
-1.06599e-06
-1.20084e-06
7.48188e-07
1.46882e-10
1.00287e-10
6.27538e-10
-4.14308e-11
1.50837e-09
-6.10395e-10
2.86535e-09
-1.72018e-09
4.78522e-09
-3.50401e-09
7.36667e-09
-6.1172e-09
1.07217e-08
-9.73966e-09
1.4977e-08
-1.45788e-08
2.02754e-08
-2.08726e-08
2.67773e-08
-2.88928e-08
3.4662e-08
-3.89477e-08
4.41288e-08
-5.13861e-08
5.53982e-08
-6.65994e-08
6.87119e-08
-8.50244e-08
8.43327e-08
-1.07145e-07
1.02543e-07
-1.33493e-07
1.23642e-07
-1.64645e-07
1.47942e-07
-2.01223e-07
1.75759e-07
-2.43883e-07
2.07405e-07
-2.93307e-07
2.43176e-07
-3.50188e-07
2.83332e-07
-4.1521e-07
3.28074e-07
-4.89012e-07
3.77512e-07
-5.7215e-07
4.31644e-07
-6.65061e-07
4.90326e-07
-7.68011e-07
5.53218e-07
-8.81016e-07
6.19749e-07
-1.00368e-06
6.89045e-07
-1.13528e-06
-1.27189e-06
7.60096e-07
1.60164e-10
-5.98776e-11
6.82519e-10
-5.63787e-10
1.63729e-09
-1.56516e-09
3.10465e-09
-3.18754e-09
5.17593e-09
-5.57529e-09
7.9548e-09
-8.89607e-09
1.15586e-08
-1.33435e-08
1.61198e-08
-1.914e-08
2.17871e-08
-2.65399e-08
2.8727e-08
-3.58326e-08
3.71246e-08
-4.73454e-08
4.71851e-08
-6.14466e-08
5.91335e-08
-7.85478e-08
7.32151e-08
-9.9106e-08
8.96939e-08
-1.23624e-07
1.08851e-07
-1.5265e-07
1.30979e-07
-1.86774e-07
1.5638e-07
-2.26623e-07
1.8535e-07
-2.72853e-07
2.18174e-07
-3.26132e-07
2.55109e-07
-3.87123e-07
2.96361e-07
-4.56462e-07
3.42059e-07
-5.34709e-07
3.92229e-07
-6.2232e-07
4.46775e-07
-7.19607e-07
5.05438e-07
-8.26674e-07
5.67758e-07
-9.43336e-07
6.33081e-07
-1.069e-06
7.00501e-07
-1.2027e-06
-1.34049e-06
7.691e-07
1.74226e-10
-2.34104e-10
7.40555e-10
-1.13012e-09
1.77303e-09
-2.59764e-09
3.35598e-09
-4.7705e-09
5.58525e-09
-7.80455e-09
8.56935e-09
-1.18802e-08
1.24308e-08
-1.72049e-08
1.73073e-08
-2.40165e-08
2.33531e-08
-3.25858e-08
3.07401e-08
-4.32196e-08
3.96587e-08
-5.62639e-08
5.03181e-08
-7.21061e-08
6.29471e-08
-9.11767e-08
7.77921e-08
-1.13951e-07
9.51164e-08
-1.40948e-07
1.15196e-07
-1.72729e-07
1.38315e-07
-2.09893e-07
1.64758e-07
-2.53066e-07
1.94799e-07
-3.02894e-07
2.2869e-07
-3.60023e-07
2.66643e-07
-4.25075e-07
3.08801e-07
-4.9862e-07
3.55218e-07
-5.81127e-07
4.05843e-07
-6.72945e-07
4.60482e-07
-7.74246e-07
5.18766e-07
-8.84958e-07
5.80148e-07
-1.00472e-06
6.4391e-07
-1.13277e-06
7.09135e-07
-1.26793e-06
-1.40634e-06
7.74986e-07
1.88995e-10
-4.23099e-10
8.01335e-10
-1.74246e-09
1.91485e-09
-3.71115e-09
3.61797e-09
-6.47362e-09
6.0109e-09
-1.01975e-08
9.20681e-09
-1.50761e-08
1.3333e-08
-2.13312e-08
1.85323e-08
-2.92158e-08
2.49637e-08
-3.90172e-08
3.28038e-08
-5.10597e-08
4.22471e-08
-6.57072e-08
5.35061e-08
-8.33651e-08
6.68109e-08
-1.04482e-07
8.24077e-08
-1.29548e-07
1.00556e-07
-1.59097e-07
1.21524e-07
-1.93698e-07
1.45583e-07
-2.33952e-07
1.72997e-07
-2.8048e-07
2.04012e-07
-3.3391e-07
2.38843e-07
-3.94853e-07
2.77647e-07
-4.63879e-07
3.20503e-07
-5.41476e-07
3.67396e-07
-6.2802e-07
4.18189e-07
-7.23738e-07
4.72592e-07
-8.28649e-07
5.30146e-07
-9.42512e-07
5.90235e-07
-1.06481e-06
6.52095e-07
-1.19463e-06
7.14816e-07
-1.33065e-06
-1.46916e-06
7.77636e-07
2.04385e-10
-6.27485e-10
8.64506e-10
-2.40258e-09
2.06192e-09
-4.90856e-09
3.88904e-09
-8.30074e-09
6.45029e-09
-1.27587e-08
9.86322e-09
-1.8489e-08
1.42597e-08