/*--------------------------------*- C++ -*----------------------------------*\
| =========                 |                                                 |
| \\      /  F ield         | foam-extend: Open Source CFD                    |
|  \\    /   O peration     | Version:     4.0                                |
|   \\  /    A nd           | Web:         http://www.foam-extend.org         |
|    \\/     M anipulation  |                                                 |
\*---------------------------------------------------------------------------*/
FoamFile
{
    version     2.0;
    format      ascii;
    class       volVectorField;
    location    "85";
    object      U;
}
// * * * * * * * * * * * * * * * * * * * * * * * * * * * * * * * * * * * * * //

dimensions      [0 1 -1 0 0 0 0];

internalField   nonuniform List<vector> 
36000
(
(-2.42281e-07 1.14285e-06 -2.50894e-25)
(-2.43555e-06 3.26108e-06 2.59046e-25)
(-7.02231e-06 5.27824e-06 0)
(-1.40619e-05 7.18887e-06 0)
(-2.35717e-05 8.98826e-06 -2.24088e-25)
(-3.55838e-05 1.06718e-05 -2.12376e-25)
(-5.01314e-05 1.22354e-05 0)
(-6.72311e-05 1.36756e-05 0)
(-8.68802e-05 1.49897e-05 0)
(-0.000109057 1.61759e-05 0)
(-0.000133722 1.72332e-05 0)
(-0.000160815 1.81612e-05 -2.96029e-25)
(-0.000190258 1.89604e-05 -4.20618e-28)
(-0.000221954 1.9632e-05 -2.58733e-25)
(-0.000255789 2.0178e-05 2.41534e-25)
(-0.000291628 2.06006e-05 -2.24681e-25)
(-0.000329322 2.09027e-05 4.18643e-25)
(-0.000368704 2.10877e-05 -1.9456e-25)
(-0.000409593 2.11586e-05 1.80342e-25)
(-0.00045179 2.11186e-05 5.01947e-25)
(-0.000495081 2.09702e-05 1.20841e-28)
(-0.000539236 2.07153e-05 5.72816e-25)
(-0.000584007 2.03542e-05 -1.32131e-25)
(-0.000629122 1.98856e-05 -2.43724e-25)
(-0.000674285 1.93062e-05 -2.24605e-25)
(-0.000719169 1.86105e-05 0)
(-0.000763409 1.77901e-05 0)
(-0.000806596 1.68323e-05 0)
(-0.000848244 1.57134e-05 1.58797e-25)
(-0.000887716 1.43955e-05 -2.90624e-25)
(-3.58666e-07 3.4149e-06 0)
(-2.74676e-06 9.74728e-06 0)
(-7.48968e-06 1.57809e-05 0)
(-1.46459e-05 2.14995e-05 9.4603e-25)
(-2.42324e-05 2.68888e-05 -2.22082e-25)
(-3.62807e-05 3.19351e-05 2.12362e-25)
(-5.08231e-05 3.6626e-05 0)
(-6.78754e-05 4.09511e-05 0)
(-8.74342e-05 4.49025e-05 -7.15905e-25)
(-0.000109477 4.84745e-05 6.71476e-25)
(-0.000133963 5.16636e-05 -6.32095e-25)
(-0.000160831 5.44689e-05 5.91114e-25)
(-0.000190003 5.68916e-05 2.76842e-25)
(-0.000221379 5.89351e-05 2.58629e-25)
(-0.000254843 6.06047e-05 4.82517e-25)
(-0.00029026 6.19072e-05 0)
(-0.000327477 6.28512e-05 -1.25662e-24)
(-0.000366325 6.34458e-05 -9.95901e-28)
(-0.000406617 6.37006e-05 1.44436e-24)
(-0.000448152 6.36245e-05 -1.00361e-24)
(-0.00049071 6.3225e-05 -6.20048e-25)
(-0.000534056 6.25071e-05 5.73562e-25)
(-0.000577934 6.1472e-05 -5.28822e-25)
(-0.000622064 6.01155e-05 9.76198e-25)
(-0.000666142 5.84275e-05 -4.13854e-29)
(-0.000709829 5.63911e-05 8.26126e-25)
(-0.00075275 5.39814e-05 -1.13886e-24)
(-0.00079449 5.11599e-05 0)
(-0.000834551 4.78569e-05 0)
(-0.000872076 4.39667e-05 0)
(-5.88341e-07 5.63634e-06 1.00732e-24)
(-3.36108e-06 1.60922e-05 4.37623e-27)
(-8.4124e-06 2.60596e-05 -1.49009e-24)
(-1.5799e-05 3.55112e-05 1.89604e-24)
(-2.55372e-05 4.44229e-05 -2.24261e-24)
(-3.76571e-05 5.27717e-05 -1.7058e-24)
(-5.21892e-05 6.05366e-05 3.22088e-24)
(-6.91476e-05 6.76999e-05 -1.5178e-24)
(-8.85274e-05 7.4248e-05 0)
(-0.000110304 8.01708e-05 0)
(-0.000134436 8.54622e-05 0)
(-0.000160859 9.01199e-05 0)
(-0.000189492 9.41454e-05 1.11042e-24)
(-0.000220233 9.75438e-05 -2.59104e-24)
(-0.000252963 0.000100323 1.93461e-24)
(-0.000287541 0.000102495 0)
(-0.000323811 0.000104072 8.39085e-25)
(-0.000361596 0.000105069 -7.78664e-25)
(-0.000400704 0.000105502 0)
(-0.000440924 0.000105385 0)
(-0.000482028 0.00010473 3.10319e-24)
(-0.000523766 0.000103545 -1.71992e-24)
(-0.000565871 0.000101832 0)
(-0.000608046 9.95834e-05 6.11277e-28)
(-0.00064997 9.67826e-05 -8.99622e-25)
(-0.000691283 9.34013e-05 -8.29444e-25)
(-0.000731589 8.93983e-05 7.58285e-25)
(-0.00077046 8.47093e-05 6.97753e-25)
(-0.00080738 7.92249e-05 0)
(-0.000841047 7.27964e-05 1.74782e-24)
(-9.25145e-07 7.77504e-06 0)
(-4.2623e-06 2.22061e-05 0)
(-9.76644e-06 3.59716e-05 4.9798e-25)
(-1.74916e-05 4.90329e-05 -1.90197e-24)
(-2.74527e-05 6.13562e-05 3.60502e-24)
(-3.96778e-05 7.29082e-05 -2.56066e-24)
(-5.41945e-05 8.3659e-05 0)
(-7.10145e-05 9.35832e-05 0)
(-9.01301e-05 0.000102661 -2.15689e-24)
(-0.000111514 0.000110876 2.70035e-24)
(-0.000135122 0.00011822 -1.26605e-24)
(-0.000160886 0.000124689 -1.18988e-24)
(-0.000188722 0.000130282 2.22558e-24)
(-0.000218524 0.000135007 -2.07558e-24)
(-0.000250166 0.000138873 -9.68174e-25)
(-0.000283502 0.000141895 0)
(-0.000318368 0.00014409 -3.36395e-24)
(-0.000354579 0.000145478 -3.05854e-27)
(-0.000391931 0.000146079 2.90044e-24)
(-0.000430202 0.000145913 2.38939e-27)
(-0.000469149 0.000144996 1.61353e-27)
(-0.000508505 0.000143336 6.75054e-28)
(-0.000547982 0.000140938 -1.06094e-24)
(-0.000587262 0.00013779 1.95977e-24)
(-0.000625996 0.000133869 0)
(-0.000663796 0.000129137 -9.94527e-28)
(-0.000700237 0.000123535 3.04531e-24)
(-0.00073487 0.000116973 -1.3976e-24)
(-0.000767165 0.00010931 -3.84108e-24)
(-0.000795142 0.000100387 -3.50406e-24)
(-1.36015e-06 9.8012e-06 1.52314e-24)
(-5.42689e-06 2.80053e-05 -3.14935e-24)
(-1.15169e-05 4.53838e-05 2.00005e-24)
(-1.96804e-05 6.18864e-05 1.90976e-24)
(-2.99303e-05 7.74688e-05 -1.80673e-24)
(-4.22916e-05 9.20875e-05 8.55598e-25)
(-5.67879e-05 0.000105703 -2.43404e-24)
(-7.34272e-05 0.000118281 6.11767e-24)
(-9.21981e-05 0.000129794 -7.14638e-25)
(-0.00011307 0.000140221 1.3573e-24)
(-0.000135993 0.000149549 -1.27396e-24)
(-0.000160897 0.000157769 1.18979e-24)
(-0.00018769 0.000164882 0)
(-0.000216262 0.000170891 0)
(-0.000246479 0.00017581 3.89193e-24)
(-0.000278187 0.000179655 -1.80933e-24)
(-0.000311213 0.000182446 1.68244e-24)
(-0.000345359 0.000184207 1.56328e-24)
(-0.000380409 0.000184962 -2.90545e-24)
(-0.000416124 0.000184735 -4.03954e-24)
(-0.000452241 0.000183543 1.2456e-24)
(-0.000488473 0.0001814 4.61232e-24)
(-0.000524505 0.000178306 -2.1271e-24)
(-0.000559991 0.000174249 5.42639e-27)
(-0.000594549 0.0001692 1.81003e-24)
(-0.000627754 0.000163108 -1.66498e-24)
(-0.000659142 0.000155901 -1.52603e-24)
(-0.00068824 0.000147464 2.39122e-27)
(-0.000714537 0.000137613 1.27542e-24)
(-0.000735071 0.000126251 2.33788e-24)
(-1.88202e-06 1.16881e-05 4.58848e-24)
(-6.82491e-06 3.34147e-05 -1.05373e-24)
(-1.36192e-05 5.41759e-05 0)
(-2.23101e-05 7.39099e-05 -9.61044e-25)
(-3.29078e-05 9.2561e-05 -4.55463e-24)
(-4.54327e-05 0.000110075 5.16681e-24)
(-5.99034e-05 0.000126401 2.44823e-24)
(-7.63228e-05 0.000141497 -1.528e-24)
(-9.46744e-05 0.000155327 1.4528e-24)
(-0.000114923 0.000167863 -6.79648e-24)
(-0.000137012 0.000179085 3.82369e-24)
(-0.000160867 0.000188981 -1.19548e-24)
(-0.000186388 0.000197547 4.47519e-24)
(-0.000213458 0.000204788 -2.08863e-24)
(-0.000241934 0.000210716 -5.85195e-24)
(-0.000271652 0.000215346 3.63289e-24)
(-0.000302426 0.000218703 -3.37969e-24)
(-0.000334045 0.000220813 -3.76609e-27)
(-0.000366277 0.000221702 -1.46426e-24)
(-0.000398862 0.000221396 -1.35333e-24)
(-0.000431516 0.000219916 4.99906e-24)
(-0.000463924 0.000217274 -4.61773e-24)
(-0.000495742 0.000213472 0)
(-0.000526589 0.000208494 -1.96843e-24)
(-0.000556045 0.000202304 -1.81028e-24)
(-0.000583639 0.000194844 -3.34386e-24)
(-0.000608866 0.000186028 3.06941e-24)
(-0.000631218 0.000175713 0)
(-0.000650243 0.000163676 6.43279e-24)
(-0.000661745 0.000149926 -1.17717e-24)
(-2.47743e-06 1.34129e-05 0)
(-8.42113e-06 3.83693e-05 0)
(-1.60209e-05 6.22436e-05 0)
(-2.53155e-05 8.49619e-05 -6.09162e-27)
(-3.63113e-05 0.000106457 6.40972e-24)
(-4.90227e-05 0.000126663 -5.18583e-24)
(-6.3462e-05 0.000145518 3.27705e-24)
(-7.96252e-05 0.000162969 -6.17141e-24)
(-9.74896e-05 0.000178972 -1.45741e-24)
(-0.000117013 0.00019349 -2.7349e-24)
(-0.000138133 0.000206497 2.56127e-24)
(-0.000160765 0.000217975 1.20553e-24)
(-0.000184804 0.000227916 7.17348e-27)
(-0.000210121 0.000236321 0)
(-0.000236563 0.000243199 -8.04455e-27)
(-0.000263956 0.000248569 1.82159e-24)
(-0.000292097 0.000252454 -1.69052e-24)
(-0.000320761 0.000254879 1.57286e-24)
(-0.000349694 0.000255875 5.84858e-24)
(-0.000378616 0.000255468 -4.15239e-27)
(-0.000407217 0.00025368 -2.51108e-24)
(-0.000435152 0.000250523 -2.31429e-24)
(-0.000462042 0.000245997 -4.47925e-27)
(-0.000487469 0.000240082 -1.98537e-24)
(-0.000510968 0.000232738 -3.64486e-24)
(-0.000532021 0.000223898 5.02138e-24)
(-0.000550072 0.000213464 -1.53156e-24)
(-0.000564565 0.000201275 -2.81926e-24)
(-0.000575184 0.00018708 -5.15988e-24)
(-0.000576206 0.000170978 2.36304e-24)
(-3.1316e-06 1.4957e-05 -4.13945e-24)
(-1.01763e-05 4.28158e-05 0)
(-1.86632e-05 6.95004e-05 -4.08868e-24)
(-2.86233e-05 9.49244e-05 4.84276e-24)
(-4.00575e-05 0.000119008 -5.52066e-24)
(-5.29731e-05 0.000141674 6.9691e-24)
(-6.73739e-05 0.000162849 -6.58419e-24)
(-8.32478e-05 0.000182469 1.54136e-24)
(-0.000100564 0.000200478 2.91118e-24)
(-0.000119271 0.000216831 -5.4905e-27)
(-0.000139299 0.000231494 -5.15797e-24)
(-0.000160553 0.000244442 4.83054e-24)
(-0.000182919 0.00025566 -4.50855e-24)
(-0.000206257 0.000265147 -8.43192e-24)
(-0.000230401 0.000272908 5.8911e-24)
(-0.000255161 0.000278959 1.82712e-24)
(-0.000280321 0.000283322 -5.11304e-24)
(-0.000305637 0.000286023 -3.1707e-24)
(-0.000330833 0.000287092 -2.92969e-24)
(-0.000355604 0.000286555 8.16159e-24)
(-0.000379611 0.000284434 -2.52642e-24)
(-0.000402478 0.00028074 4.81735e-27)
(-0.000423789 0.00027547 -4.31004e-24)
(-0.000443084 0.000268601 7.92892e-24)
(-0.000459853 0.000260088 3.64507e-24)
(-0.000473525 0.000249854 -3.35348e-24)
(-0.000483491 0.000237792 7.33623e-27)
(-0.000489132 0.000223722 2.83437e-24)
(-0.000490402 0.000207439 5.17765e-24)
(-0.000479545 0.000188998 -7.1065e-24)
(-3.82882e-06 1.63062e-05 4.17913e-24)
(-1.20486e-05 4.67134e-05 -5.39922e-24)
(-2.14834e-05 7.58791e-05 -4.11932e-24)
(-3.21548e-05 0.000103704 3.9047e-24)
(-4.40569e-05 0.000130097 3.71113e-24)
(-5.71878e-05 0.000154967 -1.74378e-24)
(-7.15412e-05 0.000178229 0)
(-8.70948e-05 0.000199807 0)
(-0.000103808 0.000219634 1.46559e-24)
(-0.000121619 0.000237655 2.75418e-24)
(-0.000140446 0.000253826 7.76865e-24)
(-0.000160185 0.000268114 -4.84885e-24)
(-0.000180709 0.000280498 -1.19509e-26)
(-0.000201864 0.000290969 4.23906e-24)
(-0.000223472 0.000299529 -1.9761e-24)
(-0.000245326 0.00030619 -3.67677e-24)
(-0.000267192 0.000310972 1.02652e-23)
(-0.000288804 0.000313899 3.17331e-24)
(-0.000309866 0.000314998 7.68868e-27)
(-0.000330045 0.000314296 6.38447e-27)
(-0.000348971 0.000311812 -4.2262e-27)
(-0.000366233 0.000307555 2.33719e-24)
(-0.000381379 0.000301519 6.47361e-24)
(-0.000393906 0.000293678 1.5532e-26)
(-0.000403256 0.000283978 3.66595e-24)
(-0.000408804 0.000272332 -1.01258e-23)
(-0.000409888 0.000258637 -6.19787e-24)
(-0.000405798 0.000242706 2.56675e-27)
(-0.000396988 0.000224325 2.60942e-24)
(-0.000372939 0.00020362 4.73497e-24)
(-4.55302e-06 1.74514e-05 -3.15799e-24)
(-1.3995e-05 5.00344e-05 5.43702e-24)
(-2.44167e-05 8.13329e-05 -2.08307e-24)
(-3.58284e-05 0.000111236 5.92256e-24)
(-4.82156e-05 0.000139638 -3.73129e-24)
(-6.15657e-05 0.000166435 -1.7604e-24)
(-7.586e-05 0.000191532 -6.67832e-24)
(-9.10639e-05 0.000214837 6.28388e-24)
(-0.000107124 0.000236275 -2.96869e-24)
(-0.000123968 0.000255778 0)
(-0.0001415 0.00027329 -5.21501e-24)
(-0.000159604 0.000288771 4.87691e-24)
(-0.000178136 0.000302191 -2.28952e-24)
(-0.000196931 0.000313533 4.25688e-24)
(-0.000215792 0.000322795 1.98029e-24)
(-0.000234497 0.000329983 0)
(-0.000252791 0.000335112 1.65308e-26)
(-0.000270386 0.000338204 0)
(-0.000286959 0.000339283 1.32774e-26)
(-0.000302151 0.000338372 5.493e-24)
(-0.00031556 0.000335489 5.08901e-24)
(-0.000326741 0.000330639 2.34773e-24)
(-0.000335203 0.000323813 -1.29897e-23)
(-0.000340401 0.000314976 7.41054e-27)
(-0.00034173 0.000304077 0)
(-0.000338514 0.000291019 6.77372e-24)
(-0.000330037 0.000275678 -5.23566e-27)
(-0.000315424 0.000257893 8.5831e-24)
(-0.000295986 0.00023742 0)
(-0.00025764 0.000214545 -4.75726e-24)
(-5.28828e-06 1.83881e-05 1.07805e-24)
(-1.59727e-05 5.27639e-05 2.20859e-24)
(-2.7398e-05 8.5835e-05 4.1845e-24)
(-3.95617e-05 0.000117478 -1.19261e-23)
(-5.24387e-05 0.000147574 5.63304e-24)
(-6.60033e-05 0.000176009 -5.33881e-24)
(-8.02225e-05 0.00020267 1.34432e-23)
(-9.50475e-05 0.000227457 -6.32915e-24)
(-0.000110411 0.00025028 5.95791e-24)
(-0.000126224 0.00027106 0)
(-0.000142379 0.000289731 0)
(-0.000158741 0.00030624 7.37361e-24)
(-0.000175154 0.00032055 3.74576e-27)
(-0.000191432 0.000332637 -4.28103e-24)
(-0.000207365 0.000342488 9.82358e-27)
(-0.000222707 0.000350105 -1.10346e-26)
(-0.000237183 0.000355498 -6.90109e-24)
(-0.000250482 0.000358683 3.20657e-24)
(-0.000262254 0.00035968 -2.9678e-24)
(-0.000272111 0.00035851 2.76248e-24)
(-0.000279618 0.000355186 -1.01863e-23)
(-0.0002843 0.000349708 -9.43586e-24)
(-0.000285624 0.000342069 4.35877e-24)
(-0.000283007 0.000332226 8.03218e-24)
(-0.000275801 0.000320115 -3.70296e-24)
(-0.000263273 0.000305633 -3.39398e-24)
(-0.000244652 0.000288643 0)
(-0.000218788 0.000269019 -5.72617e-24)
(-0.000188269 0.000246344 0)
(-0.000135039 0.000221915 7.15983e-24)
(-6.01935e-06 1.91162e-05 -2.13584e-24)
(-1.79402e-05 5.48997e-05 6.67362e-24)
(-3.03641e-05 8.93785e-05 -8.4176e-24)
(-4.32738e-05 0.000122417 -1.75504e-26)
(-5.66317e-05 0.000153885 3.79652e-24)
(-7.03969e-05 0.000183653 -8.96949e-24)
(-8.45199e-05 0.000211598 6.76952e-24)
(-9.89351e-05 0.000237606 0)
(-0.000113558 0.000261575 3.01296e-24)
(-0.000128285 0.000283413 -8.45571e-24)
(-0.000142988 0.000303043 0)
(-0.000157518 0.000320401 -9.88193e-24)
(-0.000171698 0.00033544 4.61481e-24)
(-0.000185326 0.000348127 -4.32032e-24)
(-0.00019817 0.000358442 -3.99234e-24)
(-0.000209963 0.000366377 7.46054e-24)
(-0.000220407 0.000371937 0)
(-0.000229165 0.000375132 3.23117e-24)
(-0.000235861 0.000375978 5.97803e-24)
(-0.000240076 0.000374488 -1.10838e-23)
(-0.000241347 0.000370679 5.12193e-24)
(-0.000239166 0.000364543 -4.74248e-24)
(-0.000232961 0.000356063 -4.36894e-24)
(-0.000222107 0.000345195 -4.02846e-24)
(-0.000205912 0.000331865 -7.17108e-27)
(-0.000183598 0.000315969 0)
(-0.000154368 0.000297358 -6.2848e-24)
(-0.000116712 0.000276005 0)
(-7.41685e-05 0.000250545 0)
(-6.44439e-06 0.000225694 4.82053e-24)
(-6.73204e-06 1.96401e-05 2.1786e-24)
(-1.98586e-05 5.64511e-05 -2.25126e-24)
(-3.3255e-05 9.19746e-05 -1.06469e-23)
(-4.68873e-05 0.000126064 1.00946e-23)
(-6.07031e-05 0.000158575 -9.5673e-24)
(-7.46444e-05 0.000189368 1.08679e-23)
(-8.8643e-05 0.000218307 -6.83e-24)
(-0.000102614 0.000245266 1.2858e-23)
(-0.000116455 0.000270129 -6.04162e-24)
(-0.000130041 0.000292793 2.82606e-24)
(-0.000143227 0.000313169 2.64916e-24)
(-0.000155842 0.000331182 -4.98741e-24)
(-0.000167691 0.000346775 0)
(-0.00017855 0.000359905 4.33321e-24)
(-0.000188165 0.000370542 1.09844e-26)
(-0.000196245 0.000378672 7.52259e-24)
(-0.000202467 0.000384291 -6.9895e-24)
(-0.000206468 0.000387402 3.24745e-24)
(-0.000207844 0.000388018 -5.99187e-24)
(-0.000206152 0.00038615 1.11105e-23)
(-0.000200897 0.000381801 0)
(-0.000191531 0.000374967 0)
(-0.00017745 0.000365622 8.76447e-24)
(-0.000157986 0.000353716 4.03608e-24)
(-0.000132406 0.00033917 -7.44917e-24)
(-9.98831e-05 0.000321875 -3.43687e-24)
(-5.95794e-05 0.00030168 6.28529e-24)
(-1.0087e-05 0.000278533 5.7875e-24)
(4.56431e-05 0.000250469 5.31337e-24)
(0.000128034 0.000225028 -4.79494e-24)
(-7.41355e-06 1.99675e-05 -1.09369e-23)
(-2.16924e-05 5.74375e-05 2.25126e-24)
(-3.60149e-05 9.36508e-05 0)
(-5.03291e-05 0.00012845 0)
(-6.45657e-05 0.00016168 -7.72722e-24)
(-7.86472e-05 0.000193187 3.66239e-24)
(-9.24846e-05 0.000222826 0)
(-0.000105972 0.000250457 0)
(-0.000118984 0.000275955 -3.03383e-24)
(-0.000131376 0.000299203 8.57938e-24)
(-0.000142981 0.000320101 -1.86746e-26)
(-0.000153606 0.000338563 2.51127e-24)
(-0.000163034 0.000354522 -1.5203e-26)
(-0.000171018 0.000367924 -8.70621e-24)
(-0.000177276 0.000378731 8.13317e-24)
(-0.000181494 0.000386919 2.07969e-26)
(-0.000183323 0.000392477 3.49969e-24)
(-0.000182374 0.000395404 1.30384e-23)
(-0.000178219 0.000395705 -1.81053e-23)
(-0.000170383 0.000393385 0)
(-0.000158338 0.000388445 0)
(-0.000141504 0.000380874 9.55331e-24)
(-0.000119239 0.000370639 -4.40424e-24)
(-9.08393e-05 0.000357687 4.06579e-24)
(-5.55297e-05 0.00034193 -3.7363e-24)
(-1.24381e-05 0.000323254 2.06222e-23)
(3.9308e-05 0.000301488 -2.17021e-27)
(0.000101022 0.000276519 -8.68621e-24)
(0.000170197 0.000246515 1.27188e-26)
(0.000267952 0.000219527 9.64617e-24)
(-8.05265e-06 2.01092e-05 -6.62656e-24)
(-2.34097e-05 5.7887e-05 9.1364e-24)
(-3.85935e-05 9.44483e-05 0)
(-5.35321e-05 0.000129626 -8.2371e-24)
(-6.81373e-05 0.000163254 3.87791e-24)
(-8.23104e-05 0.00019517 0)
(-9.59393e-05 0.000225214 3.48484e-24)
(-0.000108895 0.000253238 -3.27906e-24)
(-0.000121028 0.000279105 -3.05644e-24)
(-0.000132169 0.000302688 -2.86717e-24)
(-0.000142127 0.000323875 2.68536e-24)
(-0.00015069 0.000342571 -1.00793e-23)
(-0.00015761 0.000358697 9.41061e-24)
(-0.000162613 0.000372191 4.4005e-24)
(-0.000165391 0.000383003 -8.16936e-24)
(-0.000165608 0.000391104 2.10197e-26)
(-0.000162888 0.000396474 -7.05337e-24)
(-0.000156817 0.000399106 -6.52489e-24)
(-0.000146936 0.000399 6.05246e-24)
(-0.000132738 0.000396156 5.61289e-24)
(-0.000113665 0.000390569 1.03839e-23)
(-8.91025e-05 0.000382222 -9.57287e-24)
(-5.83768e-05 0.000371079 0)
(-2.07464e-05 0.000357078 -8.13657e-24)
(2.46015e-05 0.000340127 -3.75865e-24)
(7.85801e-05 0.000320102 -3.42626e-24)
(0.000142094 0.000296814 9.49863e-24)
(0.000216428 0.000270121 -5.80668e-24)
(0.000299248 0.000238297 -5.2837e-24)
(0.000412824 0.000209757 4.85056e-24)
(-8.63982e-06 2.00782e-05 -2.22328e-24)
(-2.49832e-05 5.78339e-05 2.31889e-24)
(-4.09464e-05 9.44192e-05 -2.20269e-24)
(-5.64358e-05 0.000129658 -2.08789e-24)
(-7.13424e-05 0.000163376 3.91461e-24)
(-8.55443e-05 0.000195399 1.11552e-23)
(-9.89041e-05 0.000225559 -1.39986e-23)
(-0.000111267 0.000253697 3.27912e-24)
(-0.00012246 0.000279665 -3.07897e-24)
(-0.000132287 0.000303328 1.15973e-23)
(-0.000140533 0.000324569 -1.0857e-23)
(-0.000146949 0.00034328 5.05973e-24)
(-0.000151264 0.000359367 -1.42042e-23)
(-0.00015318 0.00037276 -8.82262e-24)
(-0.000152364 0.000383406 1.64379e-23)
(-0.00014845 0.000391265 3.82689e-24)
(-0.000141035 0.000396314 -1.42048e-23)
(-0.000129674 0.000398538 1.31655e-23)
(-0.000113878 0.000397931 -6.09341e-24)
(-9.31108e-05 0.000394487 -5.64691e-24)
(-6.67822e-05 0.000388196 2.04511e-26)
(-3.42464e-05 0.000379039 0)
(5.20411e-06 0.000366974 4.44116e-24)
(5.23444e-05 0.000351934 0)
(0.000108022 0.00033382 7.50809e-24)
(0.000173189 0.000312502 1.78971e-26)
(0.000248776 0.000287772 0)
(0.000336085 0.000259477 1.30081e-26)
(0.00043277 0.000225854 -5.29964e-24)
(0.000562538 0.000196063 4.85782e-24)
(-9.16763e-06 1.98896e-05 0)
(-2.63908e-05 5.73185e-05 -2.3189e-24)
(-4.30369e-05 9.36245e-05 -6.64981e-24)
(-5.89893e-05 0.000128624 1.46941e-23)
(-7.41164e-05 0.000162135 -1.1921e-23)
(-8.82709e-05 0.000193975 -3.72693e-24)
(-0.000101289 0.000223968 1.05743e-23)
(-0.000112988 0.000251948 -3.33311e-24)
(-0.000123166 0.000277758 3.12685e-24)
(-0.0001316 0.000301253 -5.84457e-24)
(-0.000138042 0.000322303 5.46564e-24)
(-0.00014222 0.000340795 -5.11144e-24)
(-0.000143835 0.000356631 -3.14373e-26)
(-0.000142556 0.000369732 4.72448e-27)
(-0.000138024 0.000380037 4.14944e-24)
(-0.000129843 0.000387501 0)
(-0.000117578 0.000392091 7.10987e-24)
(-0.000100755 0.000393789 -6.59175e-24)
(-7.88544e-05 0.000392584 0)
(-5.13087e-05 0.000388465 5.64661e-24)
(-1.74971e-05 0.000381421 7.27864e-27)
(2.32581e-05 0.000371426 -4.82746e-24)
(7.16964e-05 0.000358436 -1.33512e-23)
(0.000128625 0.000342382 -8.20534e-24)
(0.000194924 0.000323156 0)
(0.000271577 0.000300623 -6.92105e-24)
(0.000359543 0.000274559 0)
(0.000460159 0.000244805 -5.83138e-24)
(0.000570944 0.000209461 0)
(0.000717251 0.000178769 -9.63415e-24)
(-9.63026e-06 1.95598e-05 0)
(-2.76139e-05 5.63851e-05 0)
(-4.48326e-05 9.21322e-05 0)
(-6.11453e-05 0.000126612 -8.46973e-24)
(-7.63958e-05 0.000159636 1.19924e-23)
(-9.041e-05 0.000191015 -7.55995e-24)
(-0.000102995 0.000220568 3.57485e-24)
(-0.000113939 0.000248121 6.69381e-24)
(-0.000123012 0.000273512 0)
(-0.000129958 0.000296587 -5.9099e-24)
(-0.000134501 0.000317211 1.10093e-23)
(-0.000136337 0.000335263 -1.2431e-26)
(-0.000135137 0.00035064 -5.97564e-27)
(-0.00013054 0.000363256 -4.45552e-24)
(-0.000122155 0.000373044 4.16964e-24)
(-0.000109554 0.000379954 0)
(-9.22716e-05 0.000383948 -1.43442e-23)
(-6.98021e-05 0.000385005 1.32796e-23)
(-4.15946e-05 0.000383109 -6.15028e-24)
(-7.0497e-06 0.000378248 0)
(3.44846e-05 0.000370407 -5.24362e-24)
(8.37174e-05 0.000359559 4.84479e-24)
(0.000141419 0.000345658 4.45106e-24)
(0.000208427 0.00032863 4.08881e-24)
(0.00028565 0.000308367 0)
(0.000374103 0.000284727 6.95214e-24)
(0.000474765 0.00025747 0)
(0.000589016 0.000226435 0)
(0.000714134 0.000189508 5.41578e-24)
(0.000877366 0.000158292 9.61216e-24)
(-1.00233e-05 1.91052e-05 0)
(-2.86374e-05 5.50783e-05 0)
(-4.63057e-05 9.00121e-05 0)
(-6.28613e-05 0.000123714 8.54963e-24)
(-7.81223e-05 0.000155989 8.07871e-24)
(-9.1886e-05 0.000186647 -1.14579e-23)
(-0.00010393 0.0002155 3.60192e-24)
(-0.000114011 0.000242371 -6.72485e-24)
(-0.000121867 0.000267092 6.32921e-24)
(-0.000127211 0.000289506 -1.18837e-23)
(-0.000129735 0.000309472 1.59971e-26)
(-0.000129104 0.000326864 1.60471e-26)
(-0.000124954 0.000341576 4.85485e-24)
(-0.000116893 0.000353517 0)
(-0.000104496 0.000362616 -1.25261e-23)
(-8.7302e-05 0.000368818 7.7739e-24)
(-6.48135e-05 0.000372084 7.18397e-24)
(-3.64915e-05 0.000372391 -6.68792e-24)
(-1.75262e-06 0.000369719 6.18654e-24)
(4.00349e-05 0.000364057 -5.69969e-24)
(8.9555e-05 0.000355389 1.05339e-23)
(0.000147547 0.000343687 -4.86191e-24)
(0.000214813 0.000328907 0)
(0.000292215 0.000310974 1.64595e-23)
(0.000380691 0.000289778 -1.51668e-23)
(0.000481279 0.000265172 1.5384e-27)
(0.000594966 0.000236902 -6.39096e-24)
(0.000723176 0.000204813 -5.85037e-24)
(0.000862886 0.000166492 -5.35314e-24)
(0.00104345 0.00013518 0)
(-1.03436e-05 1.85414e-05 0)
(-2.94493e-05 5.34418e-05 0)
(-4.74325e-05 8.73334e-05 4.53034e-24)
(-6.40997e-05 0.000120021 -8.59357e-24)
(-7.92417e-05 0.000151309 -8.15219e-24)
(-9.26264e-05 0.000181001 1.15273e-23)
(-0.000104 0.000208911 -3.63727e-24)
(-0.000113087 0.000234858 -6.80635e-24)
(-0.000119593 0.000258672 3.2053e-24)
(-0.000123198 0.000280193 0)
(-0.000123559 0.000299279 1.11696e-23)
(-0.000120307 0.000315801 -1.04457e-23)
(-0.000113045 0.00032965 0)
(-0.000101346 0.000340733 0)
(-8.47496e-05 0.000348978 -4.22004e-24)
(-6.27608e-05 0.000354328 -7.83266e-24)
(-3.48475e-05 0.000356745 7.25975e-24)
(-4.36393e-07 0.000356202 6.68794e-24)
(4.10897e-05 0.000352684 -1.24009e-23)
(9.03956e-05 0.000346177 -5.73981e-24)
(0.000148197 0.000336669 5.29597e-24)
(0.000215265 0.000324135 -4.86844e-24)
(0.000292427 0.000308532 4.49348e-24)
(0.000380573 0.000289791 0)
(0.00048066 0.000267797 -1.07909e-27)
(0.000593737 0.000242409 2.09195e-23)
(0.000720787 0.000213354 -6.40012e-24)
(0.000863296 0.000180482 0)
(0.00101786 0.000141012 1.07422e-23)
(0.00121614 0.000110098 -9.60484e-24)
(-1.05886e-05 1.78835e-05 0)
(-3.00394e-05 5.15174e-05 -9.69239e-24)
(-4.81918e-05 8.41626e-05 9.1618e-24)
(-6.4825e-05 0.000115624 4.37157e-24)
(-7.97017e-05 0.000145704 -8.23728e-24)
(-9.25592e-05 0.000174208 -3.85828e-24)
(-0.000103111 0.00020095 1.82498e-23)
(-0.00011105 0.000225748 -1.71683e-23)
(-0.000116046 0.000248433 9.67989e-24)
(-0.000117744 0.000268845 6.05004e-24)
(-0.000115769 0.000286842 5.65365e-24)
(-0.000109713 0.000302296 0)
(-9.91452e-05 0.000315097 -9.78227e-24)
(-8.36001e-05 0.000325154 9.1234e-24)
(-6.25824e-05 0.000332393 1.26753e-23)
(-3.5561e-05 0.000336761 -7.91076e-24)
(-1.96746e-06 0.00033822 3.88842e-26)
(3.8807e-05 0.000336746 -6.72835e-24)
(8.74147e-05 0.000332325 6.20888e-24)
(0.000144554 0.000324951 5.73995e-24)
(0.000210973 0.000314613 1.97412e-26)
(0.000287472 0.000301293 0)
(0.000374903 0.000284956 9.01707e-24)
(0.000474178 0.000265534 0)
(0.000586254 0.000242923 7.61576e-24)
(0.00071219 0.00021698 1.32089e-26)
(0.000852962 0.000187412 6.39452e-24)
(0.0010101 0.000154083 -1.03555e-26)
(0.00117976 0.000113761 -2.14192e-23)
(0.00139609 8.38087e-05 1.4462e-23)
(-1.07565e-05 1.71446e-05 0)
(-3.03985e-05 4.93431e-05 -9.78803e-24)
(-4.85635e-05 8.05617e-05 2.3206e-23)
(-6.50028e-05 0.000110607 -4.38256e-24)
(-7.94501e-05 0.000139282 0)
(-9.16115e-05 0.000166396 3.57542e-26)
(-0.000101168 0.000191763 1.4729e-23)
(-0.000107777 0.000215207 -1.38593e-23)
(-0.000111073 0.000236559 -6.44918e-24)
(-0.000110669 0.000255664 6.11208e-24)
(-0.000106149 0.000272382 -2.26882e-23)
(-9.7072e-05 0.000286587 2.64909e-23)
(-8.29657e-05 0.000298172 -1.97246e-23)
(-6.33295e-05 0.00030705 4.58396e-24)
(-3.76293e-05 0.00031315 -8.50627e-24)
(-5.29662e-06 0.000316423 7.9021e-24)
(3.42746e-05 0.000316836 7.37018e-24)
(8.173e-05 0.000314369 -6.76084e-24)
(0.000137758 0.000309016 6.23824e-24)
(0.00020309 0.000300775 -5.76738e-24)
(0.000278507 0.000289646 1.83714e-26)
(0.000364834 0.000275619 0)
(0.000462946 0.000258667 -9.01607e-24)
(0.000573754 0.000238737 2.21626e-26)
(0.000698222 0.000215729 1.92927e-26)
(0.000837406 0.000189503 6.99664e-24)
(0.000992252 0.000159746 -6.41728e-24)
(0.00116432 0.000126338 1.17458e-23)
(0.00134925 8.55161e-05 1.07574e-23)
(0.00158383 5.7158e-05 0)
(-1.08452e-05 1.63365e-05 9.59318e-24)
(-3.05173e-05 4.69527e-05 -2.48557e-24)
(-4.85269e-05 7.65862e-05 0)
(-6.45973e-05 0.000105047 -4.41916e-24)
(-7.84326e-05 0.000132142 0)
(-8.97069e-05 0.000157684 -3.93502e-24)
(-9.80674e-05 0.000181493 0)
(-0.000103137 0.000203397 -1.0444e-23)
(-0.000104516 0.000223235 -6.48637e-24)
(-0.000101778 0.000240855 1.84124e-23)
(-9.44719e-05 0.000256122 5.69767e-24)
(-8.21158e-05 0.000268919 -1.59663e-23)
(-6.42007e-05 0.000279142 3.06966e-26)
(-4.01862e-05 0.00028671 2.30708e-23)
(-9.49933e-06 0.000291561 -2.8671e-26)
(2.84677e-05 0.000293651 -1.59348e-23)
(7.43596e-05 0.000292954 -7.33927e-24)
(0.00012886 0.000289459 0)
(0.000192693 0.00028317 6.27222e-24)
(0.000266624 0.000274094 5.79133e-24)
(0.000351462 0.000262243 -1.07142e-23)
(0.000448055 0.000247622 0)
(0.000557279 0.000230219 -9.06924e-24)
(0.000680055 0.000209994 -8.30794e-24)
(0.000817334 0.000186854 -7.62504e-24)
(0.000970144 0.000160667 -6.97485e-24)
(0.00113938 0.000131097 6.4261e-24)
(0.0013266 9.8038e-05 -1.17404e-23)
(0.00152688 5.71161e-05 1.27886e-26)
(0.00177969 3.10401e-05 9.54652e-24)
(-1.08524e-05 1.54688e-05 0)
(-3.03852e-05 4.43748e-05 -2.54074e-26)
(-4.80595e-05 7.22847e-05 -1.42313e-23)
(-6.35701e-05 9.90133e-05 4.46937e-24)
(-7.65911e-05 0.000124373 0)
(-8.67644e-05 0.000148183 1.99532e-23)
(-9.37033e-05 0.000170272 -3.37924e-23)
(-9.6996e-05 0.000190475 7.06253e-24)
(-9.62054e-05 0.000208637 -1.31854e-23)
(-9.08689e-05 0.000224618 6.21792e-24)
(-8.04952e-05 0.000238289 0)
(-6.45646e-05 0.000249541 0)
(-4.25281e-05 0.000258281 -5.02133e-24)
(-1.38052e-05 0.000264436 4.66578e-24)
(2.22176e-05 0.000267954 0)
(6.6188e-05 0.000268799 7.97302e-24)
(0.00011879 0.000266958 0)
(0.000180745 0.000262432 1.3691e-23)
(0.000252814 0.000255235 -6.33098e-24)
(0.000335793 0.00024539 0)
(0.000430512 0.000232925 -5.40153e-24)
(0.000537829 0.000217864 0)
(0.000658631 0.000200214 1.81625e-23)
(0.000793823 0.000179949 8.35264e-24)
(0.000944323 0.000156993 7.6625e-24)
(0.0011111 0.00013122 0)
(0.00129496 0.000102262 1.60551e-26)
(0.00149743 7.00253e-05 5.88897e-24)
(0.00171302 2.94473e-05 -1.07598e-23)
(0.00198366 6.36817e-06 -9.54126e-24)
(-1.07748e-05 1.45489e-05 9.79297e-24)
(-2.99896e-05 4.1633e-05 -2.56327e-24)
(-4.71352e-05 6.76978e-05 -4.87922e-26)
(-6.1878e-05 9.25651e-05 1.35549e-23)
(-7.38619e-05 0.000116055 -1.28573e-23)
(-8.26965e-05 0.000137995 -4.00938e-24)
(-8.79609e-05 0.000158223 -3.5528e-26)
(-8.92078e-05 0.000176585 -3.24403e-26)
(-8.59636e-05 0.000192938 0)
(-7.77271e-05 0.00020715 -1.24347e-23)
(-6.3968e-05 0.000219106 1.74145e-23)
(-4.41272e-05 0.000228706 -1.0854e-23)
(-1.7615e-05 0.00023587 1.00814e-23)
(1.61902e-05 0.000240537 -4.66607e-24)
(5.79424e-05 0.000242667 0)
(0.00010833 0.00024224 8.07504e-24)
(0.000168077 0.000239254 -3.86378e-26)
(0.000237941 0.000233726 -6.85755e-24)
(0.000318717 0.000225685 6.33684e-24)
(0.000411225 0.000215176 -5.86624e-24)
(0.00051631 0.000202246 2.15572e-23)
(0.000634842 0.000186939 -1.98271e-23)
(0.000767696 0.000169287 9.12641e-24)
(0.000915744 0.000149287 -3.34511e-23)
(0.00107984 0.000126882 -1.53104e-23)
(0.00126086 0.000101949 2.6514e-26)
(0.00145946 7.40836e-05 1.28991e-23)
(0.00167709 4.31803e-05 1.76585e-23)
(0.00190773 3.42736e-06 -5.39243e-24)
(0.0021953 -1.59652e-05 0)
(-1.06082e-05 1.35826e-05 -9.8972e-24)
(-2.93147e-05 3.87454e-05 -5.39713e-26)
(-4.57233e-05 6.28585e-05 4.81126e-24)
(-5.94721e-05 8.57524e-05 4.54121e-24)
(-7.01747e-05 0.000107256 -2.16031e-23)
(-7.74083e-05 0.000127208 3.25425e-23)
(-8.07177e-05 0.000145459 -2.29435e-23)
(-7.962e-05 0.000161866 3.58797e-23)
(-7.36047e-05 0.0001763 -1.3462e-23)
(-6.21317e-05 0.000188642 -1.88518e-23)
(-4.46318e-05 0.000198791 1.17689e-23)
(-2.05055e-05 0.000206661 4.3221e-26)
(1.08777e-05 0.000212188 5.12032e-24)
(5.01805e-05 0.000215325 0)
(9.8098e-05 0.000216049 8.72987e-24)
(0.000155359 0.000214355 -8.06698e-24)
(0.000222725 0.000210259 1.49874e-23)
(0.000300991 0.000203795 -6.90034e-24)
(0.000390973 0.000195017 -6.36823e-24)
(0.000493514 0.000183988 -5.8682e-24)
(0.000609475 0.00017078 -1.61731e-23)
(0.000739718 0.000155464 1.9904e-23)
(0.00088509 0.000138099 9.12008e-24)
(0.0010464 0.000118715 -6.56244e-26)
(0.00122441 9.72755e-05 -2.82917e-26)
(0.00141984 7.36674e-05 0)
(0.00163316 4.74344e-05 2.79688e-26)
(0.00186559 1.84095e-05 -2.35654e-23)
(0.00211082 -2.00102e-05 5.28939e-24)
(0.00241363 -3.51459e-05 -9.72244e-24)
(-1.03468e-05 1.25735e-05 8.36329e-27)
(-2.8341e-05 3.57254e-05 1.5449e-23)
(-4.37879e-05 5.7793e-05 0)