/*--------------------------------*- C++ -*----------------------------------*\
| =========                 |                                                 |
| \\      /  F ield         | foam-extend: Open Source CFD                    |
|  \\    /   O peration     | Version:     4.0                                |
|   \\  /    A nd           | Web:         http://www.foam-extend.org         |
|    \\/     M anipulation  |                                                 |
\*---------------------------------------------------------------------------*/
FoamFile
{
    version     2.0;
    format      ascii;
    class       volScalarField;
    location    "60";
    object      p;
}
// * * * * * * * * * * * * * * * * * * * * * * * * * * * * * * * * * * * * * //

dimensions      [0 2 -2 0 0 0 0];

internalField   nonuniform List<scalar> 
36000
(
-7.52004e-06
-7.56276e-06
-7.60792e-06
-7.64955e-06
-7.68824e-06
-7.72471e-06
-7.75906e-06
-7.79124e-06
-7.82124e-06
-7.84913e-06
-7.87498e-06
-7.89889e-06
-7.92097e-06
-7.94133e-06
-7.96004e-06
-7.97713e-06
-7.99259e-06
-8.00628e-06
-8.01801e-06
-8.0274e-06
-8.03393e-06
-8.03687e-06
-8.03525e-06
-8.0278e-06
-8.01296e-06
-7.98878e-06
-7.95295e-06
-7.90272e-06
-7.8346e-06
-7.7446e-06
-7.53372e-06
-7.57585e-06
-7.62039e-06
-7.66146e-06
-7.69963e-06
-7.73564e-06
-7.76956e-06
-7.80135e-06
-7.83101e-06
-7.85858e-06
-7.88415e-06
-7.90783e-06
-7.92971e-06
-7.9499e-06
-7.96849e-06
-7.9855e-06
-8.00091e-06
-8.01461e-06
-8.02639e-06
-8.03589e-06
-8.04259e-06
-8.04578e-06
-8.04447e-06
-8.03742e-06
-8.02307e-06
-7.99949e-06
-7.96441e-06
-7.91514e-06
-7.8479e-06
-7.75725e-06
-7.56089e-06
-7.60183e-06
-7.64514e-06
-7.6851e-06
-7.72227e-06
-7.75735e-06
-7.79043e-06
-7.82145e-06
-7.8504e-06
-7.87735e-06
-7.90237e-06
-7.92557e-06
-7.94705e-06
-7.96691e-06
-7.98524e-06
-8.00208e-06
-8.0174e-06
-8.0311e-06
-8.04297e-06
-8.05268e-06
-8.05972e-06
-8.06337e-06
-8.06267e-06
-8.05641e-06
-8.04302e-06
-8.02062e-06
-7.98698e-06
-7.93957e-06
-7.8741e-06
-7.78216e-06
-7.60103e-06
-7.64023e-06
-7.68173e-06
-7.72006e-06
-7.75575e-06
-7.78947e-06
-7.82129e-06
-7.85116e-06
-7.87908e-06
-7.90509e-06
-7.92929e-06
-7.95177e-06
-7.97264e-06
-7.992e-06
-8.00993e-06
-8.02649e-06
-8.04165e-06
-8.05533e-06
-8.06732e-06
-8.07731e-06
-8.0848e-06
-8.0891e-06
-8.08927e-06
-8.08411e-06
-8.07211e-06
-8.05138e-06
-8.01981e-06
-7.97508e-06
-7.91225e-06
-7.81838e-06
-7.65339e-06
-7.69034e-06
-7.7295e-06
-7.76572e-06
-7.79949e-06
-7.83142e-06
-7.8616e-06
-7.88997e-06
-7.91652e-06
-7.94131e-06
-7.96441e-06
-7.98593e-06
-8.00598e-06
-8.02465e-06
-8.04203e-06
-8.05818e-06
-8.0731e-06
-8.08669e-06
-8.09879e-06
-8.10909e-06
-8.11712e-06
-8.12219e-06
-8.12342e-06
-8.11963e-06
-8.10934e-06
-8.09069e-06
-8.0617e-06
-8.02031e-06
-7.96108e-06
-7.86443e-06
-7.71701e-06
-7.75126e-06
-7.78761e-06
-7.82128e-06
-7.85272e-06
-7.88251e-06
-7.91069e-06
-7.93722e-06
-7.96209e-06
-7.98536e-06
-8.00711e-06
-8.02743e-06
-8.04642e-06
-8.06421e-06
-8.08087e-06
-8.09647e-06
-8.11101e-06
-8.12444e-06
-8.13659e-06
-8.14718e-06
-8.15575e-06
-8.16167e-06
-8.16406e-06
-8.16181e-06
-8.15345e-06
-8.1372e-06
-8.11118e-06
-8.07364e-06
-8.01873e-06
-7.91828e-06
-7.79077e-06
-7.82195e-06
-7.85507e-06
-7.88581e-06
-7.91458e-06
-7.94187e-06
-7.96774e-06
-7.99213e-06
-8.01504e-06
-8.03652e-06
-8.05665e-06
-8.07551e-06
-8.09324e-06
-8.10992e-06
-8.12566e-06
-8.14054e-06
-8.15456e-06
-8.16769e-06
-8.17979e-06
-8.19059e-06
-8.19966e-06
-8.20641e-06
-8.20999e-06
-8.20934e-06
-8.20305e-06
-8.1894e-06
-8.16663e-06
-8.13313e-06
-8.08309e-06
-7.97748e-06
-7.87344e-06
-7.90122e-06
-7.93079e-06
-7.9583e-06
-7.98409e-06
-8.0086e-06
-8.03187e-06
-8.05384e-06
-8.07452e-06
-8.09396e-06
-8.11221e-06
-8.12939e-06
-8.1456e-06
-8.16096e-06
-8.17557e-06
-8.18952e-06
-8.20284e-06
-8.2155e-06
-8.22738e-06
-8.23825e-06
-8.24771e-06
-8.25518e-06
-8.25989e-06
-8.26083e-06
-8.25665e-06
-8.24564e-06
-8.22611e-06
-8.19664e-06
-8.15226e-06
-8.03902e-06
-7.96368e-06
-7.98785e-06
-8.01362e-06
-8.03765e-06
-8.06022e-06
-8.08171e-06
-8.10214e-06
-8.12146e-06
-8.13967e-06
-8.15681e-06
-8.17295e-06
-8.1882e-06
-8.20266e-06
-8.21646e-06
-8.22971e-06
-8.24251e-06
-8.2549e-06
-8.26687e-06
-8.27834e-06
-8.28907e-06
-8.29872e-06
-8.30675e-06
-8.31247e-06
-8.31487e-06
-8.31266e-06
-8.30408e-06
-8.28762e-06
-8.26215e-06
-8.22489e-06
-8.0984e-06
-8.06016e-06
-8.08055e-06
-8.10235e-06
-8.12273e-06
-8.14191e-06
-8.1602e-06
-8.17759e-06
-8.19405e-06
-8.20958e-06
-8.22421e-06
-8.23802e-06
-8.2511e-06
-8.26357e-06
-8.27556e-06
-8.2872e-06
-8.29859e-06
-8.3098e-06
-8.32083e-06
-8.33161e-06
-8.34196e-06
-8.35156e-06
-8.35993e-06
-8.36639e-06
-8.36997e-06
-8.36943e-06
-8.36303e-06
-8.34929e-06
-8.32756e-06
-8.30086e-06
-8.14862e-06
-8.16152e-06
-8.17809e-06
-8.19583e-06
-8.21245e-06
-8.22813e-06
-8.24307e-06
-8.25728e-06
-8.27072e-06
-8.28338e-06
-8.2953e-06
-8.30656e-06
-8.31724e-06
-8.32749e-06
-8.33743e-06
-8.3472e-06
-8.35692e-06
-8.36666e-06
-8.37646e-06
-8.38626e-06
-8.39593e-06
-8.40516e-06
-8.4135e-06
-8.42033e-06
-8.42476e-06
-8.42558e-06
-8.42109e-06
-8.40963e-06
-8.3901e-06
-8.37928e-06
-8.18848e-06
-8.2665e-06
-8.27924e-06
-8.29292e-06
-8.30576e-06
-8.31787e-06
-8.32939e-06
-8.34031e-06
-8.3506e-06
-8.36024e-06
-8.36928e-06
-8.37779e-06
-8.38587e-06
-8.39366e-06
-8.4013e-06
-8.40895e-06
-8.4167e-06
-8.42467e-06
-8.43292e-06
-8.4414e-06
-8.44999e-06
-8.45845e-06
-8.46639e-06
-8.47323e-06
-8.47812e-06
-8.47992e-06
-8.47704e-06
-8.46809e-06
-8.4489e-06
-8.44295e-06
-8.26035e-06
-8.37392e-06
-8.38293e-06
-8.39261e-06
-8.4017e-06
-8.41023e-06
-8.41829e-06
-8.42586e-06
-8.4329e-06
-8.43942e-06
-8.44543e-06
-8.45101e-06
-8.4563e-06
-8.46142e-06
-8.46653e-06
-8.47177e-06
-8.47726e-06
-8.48312e-06
-8.48944e-06
-8.4962e-06
-8.50332e-06
-8.51062e-06
-8.51776e-06
-8.52421e-06
-8.52915e-06
-8.53148e-06
-8.5296e-06
-8.52223e-06
-8.50744e-06
-8.49603e-06
-8.32584e-06
-8.48276e-06
-8.48817e-06
-8.49398e-06
-8.4994e-06
-8.50441e-06
-8.50903e-06
-8.51321e-06
-8.51695e-06
-8.52023e-06
-8.5231e-06
-8.52564e-06
-8.52798e-06
-8.53024e-06
-8.53256e-06
-8.53508e-06
-8.53797e-06
-8.54137e-06
-8.54538e-06
-8.55003e-06
-8.55532e-06
-8.56108e-06
-8.56702e-06
-8.57263e-06
-8.57717e-06
-8.57954e-06
-8.57821e-06
-8.57214e-06
-8.55987e-06
-8.54631e-06
-8.3789e-06
-8.59212e-06
-8.59413e-06
-8.59626e-06
-8.59816e-06
-8.59976e-06
-8.601e-06
-8.60184e-06
-8.60224e-06
-8.60225e-06
-8.60189e-06
-8.60127e-06
-8.60048e-06
-8.59962e-06
-8.59885e-06
-8.59836e-06
-8.59834e-06
-8.59895e-06
-8.60031e-06
-8.60253e-06
-8.60561e-06
-8.60943e-06
-8.61373e-06
-8.61806e-06
-8.62172e-06
-8.62365e-06
-8.62237e-06
-8.61698e-06
-8.60606e-06
-8.59249e-06
-8.42176e-06
-8.70128e-06
-8.70012e-06
-8.69879e-06
-8.69735e-06
-8.69566e-06
-8.69364e-06
-8.69121e-06
-8.68833e-06
-8.68503e-06
-8.68137e-06
-8.67742e-06
-8.67326e-06
-8.66906e-06
-8.66499e-06
-8.66127e-06
-8.65809e-06
-8.65563e-06
-8.65405e-06
-8.65349e-06
-8.65397e-06
-8.65545e-06
-8.65769e-06
-8.66029e-06
-8.6626e-06
-8.66361e-06
-8.66186e-06
-8.65656e-06
-8.64624e-06
-8.63318e-06
-8.4558e-06
-8.80972e-06
-8.80566e-06
-8.80112e-06
-8.79652e-06
-8.7917e-06
-8.78649e-06
-8.78084e-06
-8.7747e-06
-8.76809e-06
-8.76106e-06
-8.75369e-06
-8.7461e-06
-8.73844e-06
-8.73093e-06
-8.72378e-06
-8.71719e-06
-8.71137e-06
-8.70654e-06
-8.70285e-06
-8.70038e-06
-8.69913e-06
-8.69891e-06
-8.69937e-06
-8.6999e-06
-8.69952e-06
-8.69681e-06
-8.69105e-06
-8.68069e-06
-8.66812e-06
-8.48163e-06
-8.91716e-06
-8.91047e-06
-8.90299e-06
-8.89547e-06
-8.88768e-06
-8.87943e-06
-8.87063e-06
-8.86127e-06
-8.85136e-06
-8.84095e-06
-8.83012e-06
-8.819e-06
-8.80777e-06
-8.79666e-06
-8.78586e-06
-8.77563e-06
-8.7662e-06
-8.75784e-06
-8.75072e-06
-8.74499e-06
-8.74066e-06
-8.73762e-06
-8.73556e-06
-8.7339e-06
-8.73171e-06
-8.72758e-06
-8.72086e-06
-8.70987e-06
-8.69762e-06
-8.49982e-06
-9.02351e-06
-9.01447e-06
-9.00432e-06
-8.99409e-06
-8.98352e-06
-8.97237e-06
-8.96054e-06
-8.94804e-06
-8.93485e-06
-8.92105e-06
-8.90672e-06
-8.89201e-06
-8.87711e-06
-8.86225e-06
-8.84764e-06
-8.83357e-06
-8.82033e-06
-8.80819e-06
-8.7974e-06
-8.78811e-06
-8.78042e-06
-8.77424e-06
-8.76931e-06
-8.76511e-06
-8.76073e-06
-8.75476e-06
-8.74662e-06
-8.73447e-06
-8.72228e-06
-8.51101e-06
-9.12886e-06
-9.11773e-06
-9.10519e-06
-9.09247e-06
-9.07929e-06
-9.06538e-06
-9.05064e-06
-9.03505e-06
-9.01864e-06
-9.00146e-06
-8.98362e-06
-8.96528e-06
-8.94663e-06
-8.9279e-06
-8.90935e-06
-8.8913e-06
-8.87407e-06
-8.85797e-06
-8.84328e-06
-8.83022e-06
-8.81891e-06
-8.80932e-06
-8.80125e-06
-8.79419e-06
-8.78729e-06
-8.7791e-06
-8.7691e-06
-8.75528e-06
-8.74288e-06
-8.51597e-06
-9.23349e-06
-9.22051e-06
-9.2058e-06
-9.19079e-06
-9.17518e-06
-9.15865e-06
-9.14109e-06
-9.12251e-06
-9.10293e-06
-9.0824e-06
-9.06105e-06
-9.03905e-06
-9.01659e-06
-8.99392e-06
-8.97134e-06
-8.9492e-06
-8.92786e-06
-8.90765e-06
-8.8889e-06
-8.87188e-06
-8.85676e-06
-8.84355e-06
-8.8321e-06
-8.82193e-06
-8.81219e-06
-8.80142e-06
-8.78915e-06
-8.77315e-06
-8.76025e-06
-8.51555e-06
-9.3378e-06
-9.32318e-06
-9.30652e-06
-9.2894e-06
-9.2715e-06
-9.25246e-06
-9.2322e-06
-9.21071e-06
-9.188e-06
-9.16416e-06
-9.13932e-06
-9.11364e-06
-9.08734e-06
-9.06069e-06
-9.03404e-06
-9.00774e-06
-8.98219e-06
-8.95777e-06
-8.93486e-06
-8.91376e-06
-8.89468e-06
-8.8777e-06
-8.86268e-06
-8.84917e-06
-8.8363e-06
-8.8226e-06
-8.80763e-06
-8.78892e-06
-8.77518e-06
-8.51068e-06
-9.44235e-06
-9.42626e-06
-9.4078e-06
-9.38872e-06
-9.36865e-06
-9.34722e-06
-9.32434e-06
-9.29999e-06
-9.27422e-06
-9.24711e-06
-9.2188e-06
-9.18946e-06
-9.15931e-06
-9.12868e-06
-9.09792e-06
-9.06743e-06
-9.03764e-06
-9.00896e-06
-8.98182e-06
-8.95655e-06
-8.93344e-06
-8.91257e-06
-8.89381e-06
-8.87673e-06
-8.86046e-06
-8.84347e-06
-8.82535e-06
-8.80336e-06
-8.78829e-06
-8.50237e-06
-9.54776e-06
-9.53032e-06
-9.5102e-06
-9.48926e-06
-9.46711e-06
-9.44337e-06
-9.41793e-06
-9.3908e-06
-9.36202e-06
-9.33169e-06
-9.29993e-06
-9.26693e-06
-9.23296e-06
-9.19836e-06
-9.16351e-06
-9.12884e-06
-9.09479e-06
-9.06185e-06
-9.03045e-06
-9.00101e-06
-8.97379e-06
-8.94892e-06
-8.92627e-06
-8.90542e-06
-8.88546e-06
-8.8648e-06
-8.84301e-06
-8.81706e-06
-8.79994e-06
-8.49169e-06
-9.65475e-06
-9.63603e-06
-9.61431e-06
-9.59158e-06
-9.56741e-06
-9.54141e-06
-9.51347e-06
-9.48359e-06
-9.45185e-06
-9.41833e-06
-9.38315e-06
-9.34654e-06
-9.3088e-06
-9.27027e-06
-9.23136e-06
-9.19253e-06
-9.15427e-06
-9.11709e-06
-9.08147e-06
-9.04783e-06
-9.01646e-06
-8.98749e-06
-8.96082e-06
-8.93597e-06
-8.91202e-06
-8.88725e-06
-8.86117e-06
-8.83042e-06
-8.81018e-06
-8.47995e-06
-9.76404e-06
-9.74406e-06
-9.72078e-06
-9.69627e-06
-9.67011e-06
-9.64187e-06
-9.61145e-06
-9.57887e-06
-9.54419e-06
-9.5075e-06
-9.46895e-06
-9.42878e-06
-9.38731e-06
-9.3449e-06
-9.30199e-06
-9.25907e-06
-9.21666e-06
-9.17529e-06
-9.13548e-06
-9.09764e-06
-9.06208e-06
-9.02895e-06
-8.9981e-06
-8.96904e-06
-8.94074e-06
-8.91137e-06
-8.88029e-06
-8.84383e-06
-8.81863e-06
-8.46925e-06
-9.87637e-06
-9.85509e-06
-9.83022e-06
-9.80392e-06
-9.77575e-06
-9.74527e-06
-9.71238e-06
-9.67711e-06
-9.63951e-06
-9.59968e-06
-9.5578e-06
-9.51413e-06
-9.46898e-06
-9.42276e-06
-9.37593e-06
-9.329e-06
-9.28251e-06
-9.23702e-06
-9.19304e-06
-9.15101e-06
-9.11124e-06
-9.07385e-06
-9.03867e-06
-9.00513e-06
-8.97209e-06
-8.93758e-06
-8.90064e-06
-8.85754e-06
-8.82364e-06
-8.46131e-06
-9.99243e-06
-9.96979e-06
-9.94325e-06
-9.9151e-06
-9.88488e-06
-9.85213e-06
-9.81676e-06
-9.77879e-06
-9.73827e-06
-9.69532e-06
-9.65015e-06
-9.60302e-06
-9.55427e-06
-9.50432e-06
-9.45365e-06
-9.4028e-06
-9.35231e-06
-9.30275e-06
-9.25464e-06
-9.20842e-06
-9.1644e-06
-9.12265e-06
-9.08296e-06
-9.04466e-06
-9.00645e-06
-8.96618e-06
-8.9223e-06
-8.87079e-06
-8.81744e-06
-8.4482e-06
-1.01129e-05
-1.00888e-05
-1.00604e-05
-1.00303e-05
-9.998e-06
-9.96293e-06
-9.92503e-06
-9.88432e-06
-9.84088e-06
-9.79485e-06
-9.74642e-06
-9.69588e-06
-9.6436e-06
-9.59e-06
-9.53558e-06
-9.48087e-06
-9.42644e-06
-9.37287e-06
-9.32066e-06
-9.27025e-06
-9.22192e-06
-9.17569e-06
-9.13127e-06
-9.0879e-06
-9.04416e-06
-8.9977e-06
-8.94586e-06
-8.88291e-06
-8.78899e-06
-8.42175e-06
-1.02383e-05
-1.02125e-05
-1.01823e-05
-1.01501e-05
-1.01156e-05
-1.00781e-05
-1.00376e-05
-9.99412e-06
-9.94774e-06
-9.89862e-06
-9.84696e-06
-9.79307e-06
-9.73731e-06
-9.68013e-06
-9.62202e-06
-9.56353e-06
-9.50523e-06
-9.44769e-06
-9.3914e-06
-9.33677e-06
-9.28402e-06
-9.23314e-06
-9.18375e-06
-9.13505e-06
-9.08556e-06
-9.03304e-06
-8.97365e-06
-8.90039e-06
-8.7626e-06
-8.50327e-06
-1.03691e-05
-1.03415e-05
-1.03092e-05
-1.02748e-05
-1.02379e-05
-1.01979e-05
-1.01548e-05
-1.01085e-05
-1.00592e-05
-1.0007e-05
-9.95209e-06
-9.89488e-06
-9.83569e-06
-9.77498e-06
-9.71324e-06
-9.65103e-06
-9.58891e-06
-9.52742e-06
-9.46703e-06
-9.40809e-06
-9.35078e-06
-9.29502e-06
-9.24037e-06
-9.18599e-06
-9.13058e-06
-9.07262e-06
-9.0083e-06
-8.93773e-06
-8.82353e-06
-9.04173e-06
-1.05056e-05
-1.04761e-05
-1.04415e-05
-1.04047e-05
-1.03654e-05
-1.03228e-05
-1.02769e-05
-1.02277e-05
-1.01754e-05
-1.01201e-05
-1.0062e-05
-1.00015e-05
-9.93893e-06
-9.87474e-06
-9.80943e-06
-9.74354e-06
-9.67761e-06
-9.61215e-06
-9.54759e-06
-9.48422e-06
-9.42214e-06
-9.36116e-06
-9.30079e-06
-9.24011e-06
-9.17786e-06
-9.11298e-06
-9.04186e-06
-8.96964e-06
-8.86759e-06
-9.1395e-06
-1.06482e-05
-1.06165e-05
-1.05794e-05
-1.05401e-05
-1.04981e-05
-1.04528e-05
-1.04041e-05
-1.0352e-05
-1.02966e-05
-1.02382e-05
-1.01769e-05
-1.01131e-05
-1.00472e-05
-9.97952e-06
-9.91066e-06
-9.84111e-06
-9.77136e-06
-9.70188e-06
-9.63303e-06
-9.56503e-06
-9.49787e-06
-9.43126e-06
-9.36458e-06
-9.29676e-06
-9.22659e-06
-9.15281e-06
-9.07189e-06
-8.98988e-06
-8.87236e-06
-9.08072e-06
-1.0797e-05
-1.07628e-05
-1.0723e-05
-1.0681e-05
-1.06363e-05
-1.05881e-05
-1.05365e-05
-1.04813e-05
-1.04229e-05
-1.03613e-05
-1.02968e-05
-1.02297e-05
-1.01604e-05
-1.00894e-05
-1.0017e-05
-9.94371e-06
-9.87009e-06
-9.79649e-06
-9.72318e-06
-9.65029e-06
-9.57767e-06
-9.50491e-06
-9.43121e-06
-9.35542e-06
-9.27607e-06
-9.19171e-06
-9.09853e-06
-9.00155e-06
-8.86306e-06
-9.01415e-06
-1.09518e-05
-1.09151e-05
-1.08724e-05
-1.08275e-05
-1.07799e-05
-1.07287e-05
-1.0674e-05
-1.06158e-05
-1.05543e-05
-1.04895e-05
-1.04218e-05
-1.03514e-05
-1.02787e-05
-1.02042e-05
-1.01282e-05
-1.00512e-05
-9.97364e-06
-9.89575e-06
-9.81775e-06
-9.73963e-06
-9.66111e-06
-9.58159e-06
-9.50011e-06
-9.41543e-06
-9.32568e-06
-9.22917e-06
-9.12198e-06
-9.00758e-06
-8.84834e-06
-8.94823e-06
-1.11127e-05
-1.10732e-05
-1.10273e-05
-1.09794e-05
-1.09287e-05
-1.08745e-05
-1.08167e-05
-1.07554e-05
-1.06906e-05
-1.06226e-05
-1.05516e-05
-1.0478e-05
-1.04019e-05
-1.03239e-05
-1.02443e-05
-1.01635e-05
-1.00818e-05
-9.99937e-06
-9.91637e-06
-9.83262e-06
-9.74767e-06
-9.66071e-06
-9.57071e-06
-9.47608e-06
-9.37481e-06
-9.26492e-06
-9.14224e-06
-9.00932e-06
-8.83008e-06
-8.88171e-06
-1.12793e-05
-1.12368e-05
-1.11877e-05
-1.11366e-05
-1.10828e-05
-1.10254e-05
-1.09644e-05
-1.08998e-05
-1.08318e-05
-1.07606e-05
-1.06863e-05
-1.06093e-05
-1.05298e-05
-1.04482e-05
-1.03649e-05
-1.02801e-05
-1.01941e-05
-1.01069e-05
-1.00186e-05
-9.92869e-06
-9.8367e-06
-9.74165e-06
-9.64223e-06
-9.53668e-06
-9.4228e-06
-9.29851e-06
-9.15938e-06
-9.0074e-06
-8.80898e-06
-8.81519e-06
-1.14513e-05
-1.14057e-05
-1.13532e-05
-1.12988e-05
-1.12416e-05
-1.1181e-05
-1.11167e-05
-1.10489e-05
-1.09776e-05
-1.09031e-05
-1.08255e-05
-1.07451e-05
-1.06621e-05
-1.05769e-05
-1.04897e-05
-1.04008e-05
-1.03102e-05
-1.02179e-05
-1.01238e-05
-1.00272e-05
-9.92754e-06
-9.82363e-06
-9.71388e-06
-9.59642e-06
-9.46904e-06
-9.32934e-06
-9.17316e-06
-9.00198e-06
-8.7853e-06
-8.74925e-06
-1.16283e-05
-1.15794e-05
-1.15233e-05
-1.14655e-05
-1.1405e-05
-1.1341e-05
-1.12734e-05
-1.12022e-05
-1.11277e-05
-1.10498e-05
-1.09688e-05
-1.0885e-05
-1.07985e-05
-1.07095e-05
-1.06183e-05
-1.0525e-05
-1.04295e-05
-1.03318e-05
-1.02313e-05
-1.01275e-05
-1.00195e-05
-9.90582e-06
-9.78488e-06
-9.65461e-06
-9.51277e-06
-9.35695e-06
-9.18328e-06
-8.99298e-06
-8.75894e-06
-8.68374e-06
-1.18096e-05
-1.17574e-05
-1.16976e-05
-1.16363e-05
-1.15724e-05
-1.1505e-05
-1.1434e-05
-1.13595e-05
-1.12816e-05
-1.12003e-05
-1.1116e-05
-1.10286e-05
-1.09384e-05
-1.08456e-05
-1.07502e-05
-1.06522e-05
-1.05515e-05
-1.04478e-05
-1.03405e-05
-1.02288e-05
-1.01116e-05
-9.98738e-06
-9.85433e-06
-9.71044e-06
-9.55331e-06
-9.38076e-06
-9.18933e-06
-8.98012e-06
-8.7295e-06
-8.61806e-06
-1.19946e-05
-1.19389e-05
-1.18755e-05
-1.18105e-05
-1.17432e-05
-1.16724e-05
-1.1598e-05
-1.15202e-05
-1.14389e-05
-1.13542e-05
-1.12664e-05
-1.11754e-05
-1.10815e-05
-1.09846e-05
-1.08847e-05
-1.07818e-05
-1.06754e-05
-1.05653e-05
-1.04505e-05
-1.03302e-05
-1.0203e-05
-1.00674e-05
-9.92138e-06
-9.76296e-06
-9.58988e-06
-9.40016e-06
-9.19081e-06
-8.96298e-06
-8.69646e-06
-8.55136e-06
-1.21827e-05
-1.21234e-05
-1.20562e-05
-1.19876e-05
-1.19168e-05
-1.18426e-05
-1.17649e-05
-1.16836e-05
-1.15989e-05
-1.15109e-05
-1.14195e-05
-1.13249e-05
-1.1227e-05
-1.11258e-05
-1.10212e-05
-1.0913e-05
-1.08005e-05
-1.06833e-05
-1.05605e-05
-1.04308e-05
-1.02928e-05
-1.01449e-05
-9.98508e-06
-9.81137e-06
-9.62175e-06
-9.41452e-06
-9.18723e-06
-8.94118e-06
-8.65938e-06
-8.48277e-06
-1.23728e-05
-1.231e-05
-1.2239e-05
-1.21668e-05
-1.20925e-05
-1.20149e-05
-1.19338e-05
-1.18492e-05
-1.17611e-05
-1.16696e-05
-1.15746e-05
-1.14762e-05
-1.13742e-05
-1.12686e-05
-1.1159e-05
-1.10449e-05
-1.09259e-05
-1.08011e-05
-1.06694e-05
-1.05296e-05
-1.038e-05
-1.02189e-05
-1.00445e-05
-9.85481e-06
-9.64817e-06
-9.4232e-06
-9.17808e-06
-8.91432e-06
-8.618e-06
-8.4122e-06
-1.25642e-05
-1.24979e-05
-1.2423e-05
-1.23473e-05
-1.22695e-05
-1.21885e-05
-1.2104e-05
-1.20161e-05
-1.19246e-05
-1.18296e-05
-1.1731e-05
-1.16287e-05
-1.15225e-05
-1.1412e-05
-1.1297e-05
-1.11768e-05
-1.10506e-05
-1.09175e-05
-1.07763e-05
-1.06255e-05
-1.04634e-05
-1.02884e-05
-1.00986e-05
-9.89243e-06
-9.66838e-06
-9.42557e-06
-9.16282e-06
-8.88191e-06
-8.57178e-06
-8.33959e-06
-1.27557e-05
-1.26859e-05
-1.26072e-05
-1.2528e-05
-1.24469e-05
-1.23626e-05
-1.22748e-05
-1.21835e-05
-1.20887e-05
-1.19902e-05
-1.18879e-05
-1.17815e-05
-1.16708e-05
-1.15553e-05
-1.14344e-05
-1.13075e-05
-1.11737e-05
-1.10316e-05
-1.08801e-05
-1.07174e-05
-1.05421e-05
-1.03524e-05
-1.01466e-05
-9.92335e-06
-9.68165e-06
-9.42101e-06
-9.1409e-06
-8.84344e-06
-8.5201e-06
-8.2641e-06
-1.29463e-05
-1.28731e-05
-1.27907e-05
-1.2708e-05
-1.26236e-05
-1.25361e-05
-1.24451e-05
-1.23505e-05
-1.22523e-05
-1.21503e-05
-1.20441e-05
-1.19336e-05
-1.18181e-05
-1.16973e-05
-1.15702e-05
-1.14361e-05
-1.12939e-05
-1.11422e-05
-1.09795e-05
-1.08043e-05
-1.06149e-05
-1.04098e-05
-1.01874e-05
-9.94675e-06
-9.68724e-06
-9.40889e-06
-9.1118e-06
-8.79843e-06
-8.46245e-06
-8.185e-06
-1.31349e-05
-1.30582e-05
-1.29723e-05
-1.28863e-05
-1.27987e-05
-1.2708e-05
-1.26138e-05
-1.25161e-05
-1.24145e-05
-1.23089e-05
-1.21989e-05
-1.20839e-05
-1.19635e-05
-1.18369e-05
-1.17032e-05
-1.15614e-05
-1.14101e-05
-1.1248e-05
-1.10735e-05
-1.08849e-05
-1.06808e-05
-1.04595e-05
-1.02201e-05
-9.9618e-06
-9.68447e-06
-9.38863e-06
-9.07503e-06
-8.74644e-06
-8.39846e-06
-8.10191e-06
-1.33202e-05
-1.32402e-05
-1.31508e-05
-1.30615e-05
-1.29709e-05
-1.28772e-05
-1.278e-05
-1.26791e-05
-1.25742e-05
-1.2465e-05
-1.23509e-05
-1.22315e-05
-1.21058e-05
-1.1973e-05
-1.18322e-05
-1.16821e-05
-1.15211e-05
-1.13479e-05
-1.11608e-05
-1.09581e-05
-1.07385e-05
-1.05006e-05
-1.02438e-05
-9.96772e-06
-9.67265e-06
-9.35968e-06
-9.03011e-06
-8.68702e-06
-8.32768e-06
-8.01408e-06
-1.35007e-05
-1.34176e-05
-1.33249e-05
-1.32326e-05
-1.3139e-05
-1.30424e-05
-1.29423e-05
-1.28383e-05
-1.27302e-05
-1.26173e-05
-1.24991e-05
-1.23749e-05
-1.22436e-05
-1.21044e-05
-1.1956e-05
-1.17969e-05
-1.16256e-05
-1.14405e-05
-1.12401e-05
-1.10226e-05
-1.0787e-05
-1.05321e-05
-1.02577e-05
-9.96375e-06
-9.65118e-06
-9.32152e-06
-8.97661e-06
-8.61978e-06
-8.24966e-06
-7.92061e-06
-1.36753e-05
-1.35892e-05
-1.34933e-05
-1.33981e-05
-1.33018e-05
-1.32024e-05
-1.30995e-05
-1.29925e-05
-1.28811e-05
-1.27646e-05
-1.26421e-05
-1.25129e-05
-1.23758e-05
-1.22297e-05
-1.2073e-05
-1.19044e-05
-1.17221e-05
-1.15246e-05
-1.13101e-05
-1.10773e-05
-1.08252e-05
-1.0553e-05
-1.02608e-05
-9.94919e-06
-9.61947e-06
-9.27369e-06
-8.91415e-06
-8.54444e-06
-8.16438e-06
-7.82192e-06
-1.38423e-05
-1.37533e-05
-1.36546e-05
-1.35566e-05
-1.34578e-05
-1.33559e-05
-1.32502e-05
-1.31404e-05
-1.30257e-05
-1.29054e-05
-1.27786e-05
-1.26441e-05
-1.25009e-05
-1.23474e-05
-1.21821e-05
-1.20033e-05
-1.18095e-05
-1.15987e-05
-1.13697e-05
-1.1121e-05
-1.0852e-05
-1.05623e-05
-1.02524e-05
-9.92336e-06
-9.57697e-06
-9.21573e-06
-8.84238e-06
-8.46075e-06
-8.07176e-06
-7.71777e-06
-1.40002e-05
-1.39087e-05
-1.38072e-05
-1.37068e-05
-1.36056e-05
-1.35013e-05
-1.33931e-05
-1.32804e-05
-1.31625e-05
-1.30384e-05
-1.29071e-05
-1.27672e-05
-1.26174e-05
-1.24561e-05
-1.22816e-05
-1.20922e-05
-1.18861e-05
-1.16617e-05
-1.14175e-05
-1.11526e-05
-1.08664e-05
-1.05592e-05
-1.02318e-05
-9.88565e-06
-9.52318e-06
-9.14725e-06
-8.76099e-06
-8.36858e-06
-7.97136e-06
-7.60499e-06
-1.41474e-05
-1.40536e-05
-1.39496e-05
-1.3847e-05
-1.37437e-05
-1.36372e-05
-1.35266e-05
-1.34112e-05
-1.32901e-05
-1.31621e-05
-1.30261e-05
-1.28805e-05
-1.27239e-05
-1.25544e-05
-1.23702e-05
-1.21696e-05
-1.19507e-05
-1.1712e-05
-1.14523e-05
-1.11709e-05
-1.08675e-05
-1.05428e-05
-1.01981e-05
-9.83547e-06
-9.45762e-06
-9.06786e-06
-8.66972e-06
-8.26775e-06
-7.86219e-06
-7.48339e-06
-1.42824e-05
-1.41864e-05
-1.40804e-05
-1.39758e-05
-1.38705e-05
-1.3762e-05
-1.36492e-05
-1.35312e-05
-1.34069e-05
-1.3275e-05
-1.31341e-05
-1.29826e-05
-1.28187e-05
-1.26406e-05
-1.24463e-05
-1.2234e-05
-1.20019e-05
-1.17485e-05
-1.1473e-05
-1.11749e-05
-1.08543e-05
-1.05123e-05
-1.01508e-05
-9.77228e-06
-9.37986e-06
-8.97721e-06
-8.5683e-06
-8.15767e-06
-7.74278e-06
-7.35533e-06
-1.44035e-05
-1.43057e-05
-1.41977e-05
-1.40915e-05
-1.39845e-05
-1.38743e-05
-1.37594e-05
-1.36388e-05
-1.35113e-05
-1.33755e-05
-1.32296e-05
-1.30719e-05
-1.29005e-05
-1.27133e-05
-1.25085e-05
-1.2284e-05
-1.20382e-05
-1.177e-05
-1.14784e-05
-1.11635e-05
-1.08259e-05
-1.04671e-05
-1.00893e-05
-9.69559e-06
-9.28949e-06
-8.87499e-06
-8.45644e-06
-8.03733e-06
-7.61461e-06
-7.22057e-06
-1.4509e-05
-1.44096e-05
-1.43001e-05
-1.41925e-05
-1.40841e-05
-1.39723e-05
-1.38555e-05
-1.37325e-05
-1.36018e-05
-1.34619e-05
-1.33109e-05
-1.31468e-05
-1.29675e-05
-1.2771e-05
-1.25552e-05
-1.23182e-05
-1.20585e-05
-1.1775e-05
-1.14674e-05
-1.11358e-05
-1.07815e-05
-1.04063e-05
-1.0013e-05
-9.60496e-06
-9.18618e-06
-8.76098e-06
-8.33381e-06
-7.90581e-06
-7.47834e-06
-7.07805e-06
-1.45971e-05
-1.44965e-05
-1.43858e-05
-1.42771e-05
-1.41677e-05
-1.40545e-05
-1.39359e-05
-1.38105e-05
-1.36768e-05
-1.35327e-05
-1.33764e-05
-1.32056e-05
-1.30183e-05
-1.28121e-05
-1.2585e-05
-1.23352e-05
-1.20614e-05
-1.17626e-05
-1.1439e-05
-1.1091e-05
-1.07203e-05
-1.03294e-05
-9.92133e-06
-9.49999e-06
-9.06961e-06
-8.63491e-06
-8.19962e-06
-7.76339e-06
-7.33345e-06
-6.92756e-06
-1.46663e-05
-1.45648e-05
-1.44533e-05
-1.43438e-05
-1.42335e-05
-1.41192e-05
-1.3999e-05
-1.38714e-05
-1.37345e-05
-1.35863e-05
-1.34245e-05
-1.3247e-05
-1.30512e-05
-1.28351e-05
-1.25965e-05
-1.23337e-05
-1.20456e-05
-1.17317e-05
-1.13922e-05
-1.10282e-05
-1.06418e-05
-1.02358e-05
-9.81396e-06
-9.38034e-06
-8.93956e-06
-8.49644e-06
-8.0529e-06
-7.61118e-06
-7.17952e-06
-6.76844e-06
-1.47149e-05
-1.46128e-05
-1.45008e-05
-1.43908e-05
-1.428e-05
-1.41648e-05
-1.40432e-05
-1.39134e-05
-1.37735e-05
-1.3621e-05
-1.34538e-05
-1.32692e-05
-1.30649e-05
-1.28386e-05
-1.25883e-05
-1.23125e-05
-1.20102e-05
-1.16812e-05
-1.13261e-05
-1.09466e-05
-1.05452e-05
-1.01251e-05
-9.69047e-06
-9.24571e-06
-8.79578e-06
-8.345e-06
-7.8937e-06
-7.44906e-06
-7.01626e-06
-6.60052e-06
-1.47412e-05
-1.4639e-05
-1.45268e-05
-1.44167e-05
-1.43056e-05
-1.41897e-05
-1.40669e-05
-1.39351e-05
-1.37921e-05
-1.36354e-05
-1.34625e-05
-1.32708e-05
-1.30578e-05
-1.28213e-05
-1.25592e-05
-1.22704e-05
-1.1954e-05
-1.16102e-05
-1.12401e-05
-1.08457e-05
-1.04301e-05
-9.99689e-06
-9.55054e-06
-9.09588e-06
-8.63796e-06
-8.17972e-06
-7.72312e-06
-7.27674e-06
-6.84319e-06
-6.42356e-06
-7.62755e-06
-7.46423e-06
-7.26984e-06
-7.03516e-06
-6.75775e-06
-6.43505e-06
-6.06626e-06
-5.65184e-06
-5.19409e-06
-4.69727e-06
-4.16771e-06
-3.61386e-06
-3.04573e-06
-2.47466e-06
-1.91342e-06
-1.37463e-06
-8.70093e-07
-4.09809e-07
-2.38837e-09
3.45559e-07
6.30616e-07
8.52058e-07
1.01189e-06
1.11454e-06
1.16639e-06
1.17523e-06
1.14958e-06
1.09807e-06
1.02882e-06
9.48981e-07
8.64409e-07
7.79569e-07
6.97585e-07
6.20432e-07
5.49187e-07
4.84286e-07
4.25732e-07
3.73261e-07
3.26459e-07
2.84848e-07
2.47931e-07
2.15242e-07
1.86334e-07
1.60824e-07
1.38329e-07
1.1856e-07
1.01174e-07
8.5986e-08
7.26431e-08
6.10987e-08
5.09161e-08
4.22657e-08
3.44874e-08
2.81203e-08
2.20614e-08
1.74787e-08
1.24678e-08
9.49739e-09
4.37011e-09
4.91042e-09
-7.64452e-06
-7.48015e-06
-7.28614e-06
-7.05168e-06
-6.77478e-06
-6.45252e-06
-6.08408e-06
-5.66989e-06
-5.2122e-06
-4.71528e-06
-4.18545e-06
-3.63117e-06
-3.06241e-06
-2.4906e-06
-1.92849e-06
-1.38873e-06
-8.83123e-07
-4.21714e-07
-1.31388e-08
3.35977e-07
6.22195e-07
8.44764e-07
1.00567e-06
1.10932e-06
1.16209e-06
1.17175e-06
1.14681e-06
1.09591e-06
1.02715e-06
9.47711e-07
8.63452e-07
7.78856e-07
6.97061e-07
6.20046e-07
5.48899e-07
4.84077e-07
4.25575e-07
3.7315e-07
3.26371e-07
2.84785e-07
2.47879e-07
2.15207e-07
1.86299e-07
1.60802e-07
1.3831e-07
1.18548e-07
1.0115e-07
8.59928e-08
7.26094e-08
6.11045e-08
5.09095e-08
4.22472e-08
3.44976e-08
2.81085e-08
2.2035e-08
1.74797e-08
1.24734e-08
9.47774e-09
4.35772e-09
4.91726e-09
-7.67799e-06
-7.5108e-06
-7.3183e-06
-7.08445e-06
-6.80846e-06
-6.48702e-06
-6.11925e-06
-5.70549e-06
-5.24796e-06
-4.75087e-06
-4.22054e-06
-3.66542e-06
-3.09546e-06
-2.52222e-06
-1.95842e-06
-1.41673e-06
-9.0903e-07
-4.45403e-07
-3.45472e-08
3.16884e-07
6.05401e-07
8.30208e-07
9.93249e-07
1.0989e-06
1.15349e-06
1.16478e-06
1.14126e-06
1.09156e-06
1.0238e-06
9.45162e-07
8.61537e-07
7.7743e-07
6.96006e-07
6.19269e-07
5.48329e-07
4.83657e-07
4.25265e-07
3.72918e-07
3.26197e-07
2.84654e-07
2.47779e-07
2.15129e-07
1.86239e-07
1.60754e-07
1.38271e-07
1.18517e-07
1.01126e-07
8.59707e-08
7.25942e-08
6.10884e-08
5.08969e-08
4.22374e-08
3.44875e-08
2.81019e-08
2.20316e-08
1.74741e-08
1.24703e-08
9.47558e-09
4.35899e-09
4.91135e-09
-7.7267e-06
-7.55487e-06
-7.36507e-06
-7.13243e-06
-6.85782e-06
-6.53757e-06
-6.17081e-06
-5.75772e-06
-5.30046e-06
-4.80318e-06
-4.27218e-06
-3.71589e-06
-3.1442e-06
-2.56892e-06
-2.00266e-06
-1.45819e-06
-9.47424e-07
-4.80549e-07
-6.63434e-08
2.885e-07
5.80409e-07
8.08526e-07
9.74733e-07
1.08335e-06
1.14066e-06
1.15437e-06
1.13297e-06
1.08506e-06
1.01879e-06
9.41347e-07
8.58668e-07
7.75293e-07
6.94425e-07
6.18105e-07
5.47474e-07
4.83027e-07
4.248e-07
3.72571e-07
3.25937e-07
2.84457e-07
2.47628e-07
2.15013e-07
1.86149e-07
1.60683e-07
1.38214e-07
1.1847e-07
1.01088e-07
8.59381e-08
7.25697e-08
6.10649e-08
5.08779e-08
4.2222e-08
3.44729e-08
2.80911e-08
2.2025e-08
1.74658e-08
1.24656e-08
9.47121e-09
4.36014e-09
4.90311e-09
-7.78891e-06
-7.61072e-06
-7.42478e-06
-7.194e-06
-6.92137e-06
-6.60279e-06
-6.23742e-06
-5.82531e-06
-5.36851e-06
-4.8711e-06
-4.33933e-06
-3.78156e-06
-3.20781e-06
-2.62992e-06
-2.06054e-06
-1.5125e-06
-9.97789e-07
-5.26714e-07
-1.08163e-07
2.51121e-07
5.47459e-07
7.79908e-07
9.50264e-07
1.06277e-06
1.12366e-06
1.14057e-06
1.12196e-06
1.07643e-06
1.01212e-06
9.36273e-07
8.54852e-07
7.72449e-07
6.9232e-07
6.16555e-07
5.46335e-07
4.82188e-07
4.2418e-07
3.72109e-07
3.25591e-07
2.84194e-07
2.47428e-07
2.14857e-07
1.86028e-07
1.60587e-07
1.38137e-07
1.18408e-07
1.01038e-07
8.58948e-08
7.25361e-08
6.1034e-08
5.08526e-08
4.22011e-08
3.4454e-08
2.80763e-08
2.20153e-08
1.74548e-08
1.24593e-08
9.46468e-09
4.36119e-09
4.89246e-09
-7.86274e-06
-7.67692e-06
-7.49555e-06
-7.26716e-06
-6.99721e-06
-6.68088e-06
-6.31739e-06
-5.90666e-06
-5.45061e-06
-4.95322e-06
-4.42069e-06
-3.86127e-06
-3.28522e-06
-2.70429e-06
-2.13122e-06
-1.57893e-06
-1.05949e-06
-5.83364e-07
-1.59557e-07
2.05119e-07
5.06852e-07
7.44589e-07
9.20025e-07
1.03731e-06
1.10259e-06
1.12345e-06
1.10829e-06
1.0657e-06
1.00383e-06
9.29954e-07
8.50094e-07
7.68902e-07
6.89695e-07
6.1462e-07
5.44913e-07
4.81141e-07
4.23405e-07
3.71531e-07
3.25158e-07
2.83866e-07
2.47177e-07
2.14664e-07
1.85877e-07
1.60467e-07
1.38041e-07
1.18331e-07
1.00974e-07
8.58411e-08
7.24935e-08
6.09955e-08
5.08208e-08
4.21746e-08
3.44306e-08
2.80574e-08
2.20024e-08
1.7441e-08
1.24514e-08
9.45603e-09
4.36213e-09
4.87935e-09
-7.94605e-06
-7.74989e-06
-7.57504e-06
-7.34967e-06
-7.08312e-06
-6.76971e-06
-6.40869e-06
-5.99986e-06
-5.54497e-06
-5.04789e-06
-4.5147e-06
-3.95372e-06
-3.37519e-06
-2.79092e-06
-2.21373e-06
-1.65664e-06
-1.13181e-06
-6.49879e-07
-2.20005e-07
1.50924e-07
4.58936e-07
7.02848e-07
8.84231e-07
1.00713e-06
1.07758e-06
1.10309e-06
1.09201e-06
1.0529e-06
9.93929e-07
9.22404e-07
8.44406e-07
7.64658e-07
6.86551e-07
6.12303e-07
5.43209e-07
4.79884e-07
4.22476e-07
3.70839e-07
3.2464e-07
2.83472e-07
2.46876e-07
2.14431e-07
1.85696e-07
1.60324e-07
1.37925e-07
1.18237e-07
1.00898e-07
8.57768e-08
7.24418e-08
6.09497e-08
5.07827e-08
4.21426e-08
3.44028e-08
2.80346e-08
2.19863e-08
1.74246e-08
1.2442e-08
9.44527e-09
4.36299e-09
4.86378e-09
-8.0371e-06
-7.8272e-06
-7.66094e-06
-7.43913e-06
-7.17672e-06
-6.86699e-06
-6.50912e-06
-6.10281e-06
-5.6496e-06
-5.15325e-06
-4.61971e-06
-4.05734e-06
-3.47632e-06
-2.88857e-06
-2.30697e-06
-1.74467e-06
-1.21392e-06
-7.25568e-07
-2.88924e-07
8.90197e-08
4.04106e-07
6.54999e-07
8.43128e-07
9.72404e-07
1.04875e-06
1.07959e-06
1.07319e-06
1.03809e-06
9.82452e-07
9.13641e-07
8.37797e-07
7.59723e-07
6.82894e-07
6.09606e-07
5.41223e-07
4.7842e-07
4.21393e-07
3.70033e-07
3.24035e-07
2.83014e-07
2.46526e-07
2.1416e-07
1.85484e-07
1.60156e-07
1.37791e-07
1.18129e-07
1.0081e-07
8.5702e-08
7.23811e-08
6.08963e-08
5.07382e-08
4.21051e-08
3.43706e-08
2.80076e-08
2.19671e-08
1.74054e-08
1.2431e-08
9.43243e-09
4.36375e-09
4.84574e-09
-8.13557e-06
-7.90496e-06
-7.75105e-06
-7.53314e-06
-7.27553e-06
-6.97034e-06