/*--------------------------------*- C++ -*----------------------------------*\
| =========                 |                                                 |
| \\      /  F ield         | foam-extend: Open Source CFD                    |
|  \\    /   O peration     | Version:     4.0                                |
|   \\  /    A nd           | Web:         http://www.foam-extend.org         |
|    \\/     M anipulation  |                                                 |
\*---------------------------------------------------------------------------*/
FoamFile
{
    version     2.0;
    format      ascii;
    class       surfaceScalarField;
    location    "60";
    object      phi;
}
// * * * * * * * * * * * * * * * * * * * * * * * * * * * * * * * * * * * * * //

dimensions      [0 3 -1 0 0 0 0];

internalField   nonuniform List<scalar> 
71520
(
-2.07484e-10
2.06063e-10
1.421e-12
-8.35843e-10
6.23985e-10
4.37437e-12
-1.91642e-09
1.07295e-09
7.62243e-12
-3.48087e-09
1.55327e-09
1.11768e-11
-5.56096e-09
2.06504e-09
1.50474e-11
-8.18834e-09
2.60814e-09
1.92422e-11
-1.13944e-08
3.18228e-09
2.37671e-11
-1.521e-08
3.78694e-09
2.86251e-11
-1.96651e-08
4.42137e-09
3.38162e-11
-2.4789e-08
5.08454e-09
3.93375e-11
-3.06093e-08
5.77512e-09
4.51819e-11
-3.71521e-08
6.49143e-09
5.13381e-11
-4.44412e-08
7.23132e-09
5.77906e-11
-5.24979e-08
7.99217e-09
6.45192e-11
-6.134e-08
8.77066e-09
7.14983e-11
-7.09814e-08
9.56269e-09
7.8697e-11
-8.14308e-08
1.03632e-08
8.6079e-11
-9.26903e-08
1.11659e-08
9.36009e-11
-1.04754e-07
1.19629e-08
1.0121e-10
-1.17607e-07
1.27441e-08
1.08845e-10
-1.31221e-07
1.34968e-08
1.16427e-10
-1.4555e-07
1.42052e-08
1.23866e-10
-1.6053e-07
1.4849e-08
1.31041e-10
-1.7607e-07
1.54026e-08
1.37806e-10
-1.92048e-07
1.58343e-08
1.43976e-10
-2.08302e-07
1.61047e-08
1.49318e-10
-2.24621e-07
1.61654e-08
1.53543e-10
-2.40733e-07
1.59556e-08
1.56295e-10
-2.56285e-07
1.53948e-08
1.57127e-10
1.43871e-08
-2.70828e-07
1.55473e-10
-2.04487e-10
4.1055e-10
-8.23916e-10
1.24342e-09
-1.88932e-09
2.13836e-09
-3.43205e-09
3.096e-09
-5.48352e-09
4.11651e-09
-8.07504e-09
5.19966e-09
-1.12376e-08
6.34482e-09
-1.50016e-08
7.55092e-09
-1.93966e-08
8.8164e-09
-2.44512e-08
1.01392e-08
-3.01925e-08
1.15164e-08
-3.66457e-08
1.29447e-08
-4.38339e-08
1.44195e-08
-5.17773e-08
1.59356e-08
-6.04926e-08
1.74859e-08
-6.99921e-08
1.90622e-08
-8.0283e-08
2.06542e-08
-9.13658e-08
2.22487e-08
-1.03232e-07
2.38296e-08
-1.15865e-07
2.53764e-08
-1.29232e-07
2.68636e-08
-1.43285e-07
2.82585e-08
-1.57956e-07
2.95201e-08
-1.7315e-07
3.05968e-08
-1.88741e-07
3.14246e-08
-2.0456e-07
3.19239e-08
-2.20392e-07
3.19971e-08
-2.35959e-07
3.15228e-08
-2.50904e-07
3.03402e-08
2.82542e-08
-2.64771e-07
-1.9857e-10
6.09122e-10
-8.00355e-10
1.8452e-09
-1.83577e-09
3.17378e-09
-3.33553e-09
4.59576e-09
-5.33038e-09
6.11137e-09
-7.85091e-09
7.72019e-09
-1.09273e-08
9.42122e-09
-1.45891e-08
1.12127e-08
-1.8865e-08
1.30923e-08
-2.37823e-08
1.50565e-08
-2.93669e-08
1.7101e-08
-3.56426e-08
1.92203e-08
-4.26307e-08
2.14076e-08
-5.03493e-08
2.36542e-08
-5.88128e-08
2.59494e-08
-6.8031e-08
2.82804e-08
-7.80076e-08
3.06308e-08
-8.87395e-08
3.29806e-08
-1.00215e-07
3.53046e-08
-1.12409e-07
3.75714e-08
-1.25287e-07
3.97415e-08
-1.38794e-07
4.17649e-08
-1.52853e-07
4.3579e-08
-1.67361e-07
4.51053e-08
-1.82183e-07
4.62464e-08
-1.97141e-07
4.68819e-08
-2.12008e-07
4.68646e-08
-2.26498e-07
4.60121e-08
-2.40244e-07
4.40862e-08
4.07833e-08
-2.52773e-07
-1.89898e-10
7.99021e-10
-7.65803e-10
2.42111e-09
-1.75721e-09
4.16519e-09
-3.19385e-09
6.03241e-09
-5.10549e-09
8.023e-09
-7.52161e-09
1.01363e-08
-1.04712e-08
1.23708e-08
-1.39826e-08
1.47241e-08
-1.8083e-08
1.71926e-08
-2.2798e-08
1.97715e-08
-2.81516e-08
2.24546e-08
-3.41654e-08
2.52341e-08
-4.0858e-08
2.81003e-08
-4.82448e-08
3.10409e-08
-5.63366e-08
3.40412e-08
-6.51391e-08
3.70829e-08
-7.46515e-08
4.01432e-08
-8.48652e-08
4.31943e-08
-9.57618e-08
4.62012e-08
-1.07311e-07
4.91204e-08
-1.19467e-07
5.18975e-08
-1.32166e-07
5.44641e-08
-1.45322e-07
5.67346e-08
-1.58819e-07
5.86024e-08
-1.72508e-07
5.99355e-08
-1.86198e-07
6.05715e-08
-1.99646e-07
6.03126e-08
-2.12549e-07
5.89155e-08
-2.24533e-07
5.60707e-08
5.13467e-08
-2.35097e-07
-1.78709e-10
9.7773e-10
-7.21186e-10
2.96359e-09
-1.65569e-09
5.0997e-09
-3.01069e-09
7.3874e-09
-4.81456e-09
9.82687e-09
-7.09538e-09
1.24171e-08
-9.88058e-09
1.51561e-08
-1.31967e-08
1.80402e-08
-1.7069e-08
2.10649e-08
-2.1521e-08
2.42235e-08
-2.6574e-08
2.75077e-08
-3.22468e-08
3.09069e-08
-3.85547e-08
3.44082e-08
-4.5509e-08
3.79953e-08
-5.31162e-08
4.16484e-08
-6.13767e-08
4.53434e-08
-7.02837e-08
4.90502e-08
-7.98215e-08
5.2732e-08
-8.99636e-08
5.63432e-08
-1.0067e-07
5.9827e-08
-1.11885e-07
6.31125e-08
-1.23533e-07
6.61116e-08
-1.35512e-07
6.87141e-08
-1.47693e-07
7.07837e-08
-1.5991e-07
7.2152e-08
-1.71952e-07
7.26134e-08
-1.83557e-07
7.19179e-08
-1.94402e-07
6.97604e-08
-2.04106e-07
6.57744e-08
5.93673e-08
-2.12126e-07
-1.65304e-10
1.14303e-09
-6.67683e-10
3.46597e-09
-1.53387e-09
5.96588e-09
-2.79071e-09
8.64424e-09
-4.4649e-09
1.15011e-08
-6.5827e-09
1.45349e-08
-9.16961e-09
1.7743e-08
-1.225e-08
2.11206e-08
-1.58466e-08
2.46615e-08
-1.99803e-08
2.83572e-08
-2.46694e-08
3.21968e-08
-2.9929e-08
3.61665e-08
-3.57703e-08
4.02495e-08
-4.22e-08
4.44249e-08
-4.92189e-08
4.86673e-08
-5.68212e-08
5.29456e-08
-6.49927e-08
5.72217e-08
-7.37093e-08
6.14487e-08
-8.29349e-08
6.55688e-08
-9.26184e-08
6.95105e-08
-1.02691e-07
7.31852e-08
-1.13062e-07
7.6483e-08
-1.23616e-07
7.92675e-08
-1.34203e-07
8.13709e-08
-1.44638e-07
8.25865e-08
-1.54688e-07
8.26634e-08
-1.64068e-07
8.12984e-08
-1.72432e-07
7.8124e-08
-1.79386e-07
7.27286e-08
6.43242e-08
-1.84343e-07
-1.50035e-10
1.29307e-09
-6.06671e-10
3.9226e-09
-1.39481e-09
6.75402e-09
-2.53938e-09
9.78881e-09
-4.06505e-09
1.30267e-08
-5.99591e-09
1.64658e-08
-8.3551e-09
2.01021e-08
-1.11644e-08
2.39299e-08
-1.44437e-08
2.79409e-08
-1.82107e-08
3.21242e-08
-2.24798e-08
3.64659e-08
-2.72621e-08
4.09488e-08
-3.25641e-08
4.55514e-08
-3.83867e-08
5.02475e-08
-4.47245e-08
5.50052e-08
-5.15644e-08
5.97855e-08
-5.88838e-08
6.45411e-08
-6.66489e-08
6.92138e-08
-7.48124e-08
7.37323e-08
-8.33107e-08
7.80088e-08
-9.20606e-08
8.19351e-08
-1.00955e-07
8.53777e-08
-1.0986e-07
8.81722e-08
-1.18606e-07
9.01171e-08
-1.26985e-07
9.09653e-08
-1.34741e-07
9.04193e-08
-1.41564e-07
8.81213e-08
-1.47081e-07
8.3641e-08
-1.50877e-07
7.65247e-08
6.57571e-08
-1.5231e-07
-1.33294e-10
1.42637e-09
-5.39684e-10
4.329e-09
-1.24195e-09
7.45629e-09
-2.26281e-09
1.08097e-08
-3.62456e-09
1.43885e-08
-5.34877e-09
1.819e-08
-7.45585e-09
2.22092e-08
-9.96456e-09
2.64386e-08
-1.28915e-08
3.08678e-08
-1.62506e-08
3.54832e-08
-2.00522e-08
4.02675e-08
-2.43024e-08
4.5199e-08
-2.90023e-08
5.02513e-08
-3.41467e-08
5.5392e-08
-3.97231e-08
6.05816e-08
-4.57102e-08
6.57726e-08
-5.2076e-08
7.09069e-08
-5.8776e-08
7.59137e-08
-6.57506e-08
8.07069e-08
-7.29224e-08
8.51806e-08
-8.01924e-08
8.92052e-08
-8.74365e-08
9.26217e-08
-9.44999e-08
9.52357e-08
-1.01193e-07
9.68101e-08
-1.07283e-07
9.70555e-08
-1.12489e-07
9.56254e-08
-1.16475e-07
9.21073e-08
-1.18838e-07
8.60041e-08
-1.1914e-07
7.6826e-08
6.32729e-08
-1.16656e-07
-1.15497e-10
1.54186e-09
-4.68351e-10
4.68185e-09
-1.07896e-09
8.06689e-09
-1.9675e-09
1.16982e-08
-3.15361e-09
1.55746e-08
-4.65599e-09
1.96924e-08
-6.49194e-09
2.40452e-08
-8.67682e-09
2.86235e-08
-1.12235e-08
3.34145e-08
-1.41416e-08
3.84014e-08
-1.74369e-08
4.35628e-08
-2.11102e-08
4.88723e-08
-2.51566e-08
5.42977e-08
-2.9564e-08
5.97994e-08
-3.43121e-08
6.53298e-08
-3.93707e-08
7.08312e-08
-4.46978e-08
7.62339e-08
-5.02372e-08
8.14532e-08
-5.59163e-08
8.6386e-08
-6.16429e-08
9.09072e-08
-6.73015e-08
9.48637e-08
-7.27495e-08
9.80697e-08
-7.78122e-08
1.00298e-07
-8.22771e-08
1.01275e-07
-8.58889e-08
1.00667e-07
-8.83392e-08
9.80757e-08
-8.92606e-08
9.30287e-08
-8.82213e-08
8.49649e-08
-8.47783e-08
7.33829e-08
5.65551e-08
-7.80605e-08
-9.70693e-11
1.63893e-09
-3.94338e-10
4.97912e-09
-9.09558e-10
8.58211e-09
-1.66011e-09
1.24488e-08
-2.66266e-09
1.65772e-08
-3.9327e-09
2.09624e-08
-5.48405e-09
2.55965e-08
-7.32833e-09
3.04678e-08
-9.47422e-09
3.55604e-08
-1.19268e-08
4.08539e-08
-1.46865e-08
4.63225e-08
-1.77486e-08
5.19344e-08
-2.11014e-08
5.76505e-08
-2.47257e-08
6.34236e-08
-2.85928e-08
6.91969e-08
-3.26629e-08
7.49014e-08
-3.68833e-08
8.04543e-08
-4.11857e-08
8.57556e-08
-4.54838e-08
9.0684e-08
-4.96698e-08
9.50932e-08
-5.36116e-08
9.88056e-08
-5.71479e-08
1.01606e-07
-6.00838e-08
1.03234e-07
-6.21848e-08
1.03376e-07
-6.31703e-08
1.01653e-07
-6.27058e-08
9.76112e-08
-6.03919e-08
9.07148e-08
-5.57514e-08
8.03243e-08
-4.83833e-08
6.60149e-08
4.54901e-08
-3.73184e-08
-7.84261e-11
1.71736e-09
-3.19283e-10
5.21997e-09
-7.37446e-10
9.00027e-09
-1.34724e-09
1.30586e-08
-2.16206e-09
1.7392e-08
-3.19388e-09
2.19942e-08
-4.45274e-09
2.68554e-08
-5.94612e-09
3.19611e-08
-7.67817e-09
3.72924e-08
-9.64892e-09
4.28247e-08
-1.18533e-08
4.8527e-08
-1.42803e-08
5.43613e-08
-1.69114e-08
6.02816e-08
-1.97195e-08
6.62318e-08
-2.26672e-08
7.21446e-08
-2.57047e-08
7.79389e-08
-2.87679e-08
8.35175e-08
-3.17759e-08
8.87636e-08
-3.46284e-08
9.35366e-08
-3.72024e-08
9.76672e-08
-3.93487e-08
1.00952e-07
-4.08878e-08
1.03145e-07
-4.1604e-08
1.03951e-07
-4.124e-08
1.03012e-07
-3.94908e-08
9.99036e-08
-3.59982e-08
9.41185e-08
-3.03467e-08
8.50632e-08
-2.20053e-08
7.1983e-08
-1.02339e-08
5.42435e-08
3.0848e-08
4.40826e-09
-5.99596e-11
1.77732e-09
-2.44733e-10
5.40474e-09
-5.66111e-10
9.32165e-09
-1.03513e-09
1.35276e-08
-1.66165e-09
1.80185e-08
-2.45387e-09
2.27865e-08
-3.4177e-09
2.78192e-08
-4.55617e-09
3.30996e-08
-5.86856e-09
3.86048e-08
-7.34951e-09
4.43056e-08
-8.98807e-09
5.01655e-08
-1.07666e-08
5.61398e-08
-1.26594e-08
6.21743e-08
-1.46311e-08
6.82035e-08
-1.66349e-08
7.41484e-08
-1.86108e-08
7.99148e-08
-2.04831e-08
8.53897e-08
-2.21582e-08
9.04387e-08
-2.35217e-08
9.49001e-08
-2.44355e-08
9.85811e-08
-2.47335e-08
1.0125e-07
-2.4217e-08
1.02629e-07
-2.26502e-08
1.02384e-07
-1.97542e-08
1.00116e-07
-1.52005e-08
9.53499e-08
-8.60291e-09
8.7521e-08
4.92075e-10
7.59683e-08
1.2519e-08
5.99561e-08
2.8334e-08
3.84285e-08
1.0911e-08
4.8271e-08
-4.20177e-11
1.81934e-09
-1.72072e-10
5.5348e-09
-3.98703e-10
9.54828e-09
-7.29464e-10
1.38583e-08
-1.17046e-09
1.84595e-08
-1.72584e-09
2.33418e-08
-2.39712e-09
2.84905e-08
-3.18255e-09
3.3885e-08
-4.07622e-09
3.94985e-08
-5.06712e-09
4.52965e-08
-6.1381e-09
5.12365e-08
-7.26468e-09
5.72664e-08
-8.41345e-09
6.33231e-08
-9.54041e-09
6.93304e-08
-1.05892e-08
7.51972e-08
-1.1489e-08
8.08147e-08
-1.21528e-08
8.60534e-08
-1.24743e-08
9.07603e-08
-1.23254e-08
9.47512e-08
-1.15521e-08
9.78078e-08
-9.97157e-09
9.96693e-08
-7.36684e-09
1.00024e-07
-3.48241e-09
9.84993e-08
1.98141e-09
9.46523e-08
9.37465e-09
8.79566e-08
1.91034e-08
7.77922e-08
3.16356e-08
6.3436e-08
4.75453e-08
4.40463e-08
6.73682e-08
1.86057e-08
-1.37088e-08
9.19879e-08
-2.48901e-11
1.84423e-09
-1.02469e-10
5.61237e-09
-2.37899e-10
9.68371e-09
-4.35101e-10
1.40555e-08
-6.9626e-10
1.87207e-08
-1.02126e-09
2.36668e-08
-1.40698e-09
2.88762e-08
-1.84656e-09
3.43246e-08
-2.32862e-09
3.99806e-08
-2.83627e-09
4.58042e-08
-3.34607e-09
5.17463e-08
-3.82622e-09
5.77466e-08
-4.23502e-09
6.37319e-08
-4.51948e-09
6.96149e-08
-4.6136e-09
7.52913e-08
-4.43624e-09
8.06373e-08
-3.88887e-09
8.55061e-08
-2.85233e-09
8.97237e-08
-1.18461e-09
9.30834e-08
1.28334e-09
9.53398e-08
4.75128e-09
9.62013e-08
9.45376e-09
9.53213e-08
1.5665e-08
9.2288e-08
2.37044e-08
8.6613e-08
3.39418e-08
7.77192e-08
4.68056e-08
6.49285e-08
6.27902e-08
4.74514e-08
8.24651e-08
2.43715e-08
1.06431e-07
-5.36069e-09
-4.28344e-08
1.35557e-07
-8.81098e-12
1.85304e-09
-3.6884e-11
5.64045e-09
-8.58983e-11
9.73273e-09
-1.55998e-10
1.41256e-08
-2.45299e-10
1.881e-08
-3.49298e-10
2.37708e-08
-4.6015e-10
2.89871e-08
-5.65815e-10
3.44303e-08
-6.49077e-10
4.00638e-08
-6.86909e-10
4.5842e-08
-6.48621e-10
5.1708e-08
-4.94536e-10
5.75925e-08
-1.74942e-10
6.34123e-08
3.71779e-10
6.90682e-08
1.22113e-09
7.4442e-08
2.4647e-09
7.93938e-08
4.21268e-09
8.37581e-08
6.59701e-09
8.73394e-08
9.77391e-09
8.99065e-08
1.39275e-08
9.11863e-08
1.92735e-08
9.08553e-08
2.60635e-08
8.85313e-08
3.45897e-08
8.37618e-08
4.51897e-08
7.6013e-08
5.82524e-08
6.46564e-08
7.42251e-08
4.89558e-08
9.36203e-08
2.80562e-08
1.17023e-07
9.68387e-10
1.45072e-07
-3.34088e-08
-7.63796e-08
1.78617e-07
5.95289e-12
1.84708e-09
2.36879e-11
5.62271e-09
5.51205e-11
9.70129e-09
1.04018e-10
1.40767e-08
1.76512e-10
1.87375e-08
2.81712e-10
2.36656e-08
4.3245e-10
2.88363e-08
6.46115e-10
3.42166e-08
9.4567e-10
3.97643e-08
1.36089e-09
4.54268e-08
1.92971e-09
5.11392e-08
2.69906e-09
5.68231e-08
3.72685e-09
6.23845e-08
5.08375e-09
6.77113e-08
6.85512e-09
7.26706e-08
9.14344e-09
7.71055e-08
1.20709e-08
8.08307e-08
1.57819e-08
8.36284e-08
2.04465e-08
8.5242e-08
2.62634e-08
8.53693e-08
3.34641e-08
8.36547e-08
4.23165e-08
7.96788e-08
5.31297e-08
7.29486e-08
6.62586e-08
6.28841e-08
8.21095e-08
4.88055e-08
1.01146e-07
2.9919e-08
1.23897e-07
5.30546e-09
1.50962e-07
-2.60962e-08
1.83002e-07
-6.54489e-08
-1.14243e-07
2.20865e-07
1.92574e-11
1.82782e-09
7.86724e-11
5.5633e-09
1.83829e-10
9.59614e-09
3.42489e-10
1.39181e-08
5.65138e-10
1.85148e-08
8.65627e-10
2.33651e-08
1.26195e-09
2.844e-08
1.77712e-09
3.37015e-08
2.44021e-09
3.91012e-08
3.28765e-09
4.45793e-08
4.36422e-09
5.00626e-08
5.72472e-09
5.54626e-08
7.43551e-09
6.06737e-08
9.57641e-09
6.55704e-08
1.22429e-08
7.00041e-08
1.55483e-08
7.38e-08
1.96266e-08
7.67524e-08
2.46348e-08
7.86201e-08
3.07565e-08
7.91202e-08
3.8205e-08
7.79209e-08
4.72268e-08
7.46328e-08
5.81059e-08
6.87998e-08
7.11674e-08
5.98871e-08
8.67827e-08
4.72689e-08
1.05373e-07
3.02147e-08
1.27418e-07
7.87422e-09
1.53457e-07
-2.07334e-08
1.84101e-07
-5.674e-08
2.20031e-07
-1.01379e-07
-1.56307e-07
2.62095e-07
3.10908e-11
1.79673e-09
1.27946e-10
5.46644e-09
2.99856e-10
9.42423e-09
5.58638e-10
1.36593e-08
9.19209e-10
1.81542e-08
1.40026e-09
2.28841e-08
2.02504e-09
2.78152e-08
2.82232e-09
3.29042e-08
3.8274e-09
3.80961e-08
5.08336e-09
4.33234e-08
6.64228e-09
4.85037e-08
8.56686e-09
5.35381e-08
1.0932e-08
5.83086e-08
1.3827e-08
6.26754e-08
1.73574e-08
6.64737e-08
2.16475e-08
6.95098e-08
2.6843e-08
7.15569e-08
3.31136e-08
7.23495e-08
4.06563e-08
7.15775e-08
4.96987e-08
6.88785e-08
6.05024e-08
6.38292e-08
7.33666e-08
5.59356e-08
8.86322e-08
4.46215e-08
1.06685e-07
2.92156e-08
1.27963e-07
8.93741e-09
1.52954e-07
-1.71168e-08
1.82208e-07
-4.99873e-08
2.16344e-07
-9.0876e-08
2.56054e-07
-1.41089e-07
-2.02443e-07
3.0219e-07
4.14626e-11
1.75527e-09
1.7154e-10
5.33636e-09
4.03238e-10
9.19253e-09
7.5246e-10
1.33101e-08
1.2386e-09
1.76681e-08
1.88525e-09
2.22374e-08
2.72102e-09
2.69795e-08
3.78049e-09
3.18447e-08
5.1053e-09
3.67713e-08
6.74534e-09
4.16833e-08
8.76015e-09
4.64889e-08
1.12205e-08
5.10777e-08
1.421e-08
5.5319e-08
1.78274e-08
5.9058e-08
2.21886e-08
6.21125e-08
2.7429e-08
6.42695e-08
3.37059e-08
6.528e-08
4.12018e-08
6.48536e-08
5.01273e-08
6.26521e-08
6.0724e-08
5.82817e-08
7.32684e-08
5.12848e-08
8.80749e-08
4.11291e-08
1.05499e-07
2.71972e-08
1.25942e-07
8.77276e-09
1.49851e-07
-1.49718e-08
1.77726e-07
-4.49914e-08
2.10122e-07
-8.23831e-08
2.47661e-07
-1.28415e-07
2.91037e-07
-1.84465e-07
-2.52511e-07
3.41105e-07
5.04469e-11
1.70483e-09
2.09726e-10
5.17708e-09
4.9455e-10
8.90771e-09
9.24918e-10
1.28797e-08
1.52473e-09
1.70683e-08
2.32253e-09
2.14396e-08
3.35233e-09
2.59497e-08
4.65462e-09
3.05424e-08
6.27744e-09
3.51485e-08
8.27766e-09
3.96831e-08
1.07224e-08
4.40442e-08
1.36905e-08
4.81096e-08
1.72748e-08
5.17348e-08
2.15835e-08
5.47493e-08
2.67429e-08
5.69531e-08
3.28994e-08
5.81129e-08
4.02226e-08
5.79568e-08
4.89078e-08
5.61685e-08
5.91789e-08
5.2381e-08
7.1292e-08
4.61687e-08
8.55381e-08
3.70387e-08
1.02246e-07
2.44208e-08
1.21787e-07
7.65637e-09
1.44573e-07
-1.40134e-08
1.71063e-07
-4.14611e-08
2.01761e-07
-7.56901e-08
2.37228e-07
-1.1785e-07
2.7808e-07
-1.69267e-07
3.25004e-07
-2.31389e-07
-3.06354e-07
3.78847e-07
5.81737e-11
1.64665e-09
2.42998e-10
4.99226e-09
5.74876e-10
8.57583e-09
1.0779e-09
1.23767e-08
1.78048e-09
1.63657e-08
2.71614e-09
2.0504e-08
3.92435e-09
2.47415e-08
5.45157e-09
2.90152e-08
7.35235e-09
3.32477e-08
9.69063e-09
3.73448e-08
1.25412e-08
4.11936e-08
1.59914e-08
4.46594e-08
2.0143e-08
4.75832e-08
2.51141e-08
4.97781e-08
3.10416e-08
5.10256e-08
3.80833e-08
5.10712e-08
4.64209e-08
4.96192e-08
5.62627e-08
4.63267e-08
6.78464e-08
4.07972e-08
8.14424e-08
3.25727e-08
9.73563e-08
2.11248e-08
1.15932e-07
5.84533e-09
1.37552e-07
-1.39636e-08
1.6264e-07
-3.91015e-08
1.91663e-07
-7.0484e-08
2.2513e-07
-1.09158e-07
2.63598e-07
-1.56317e-07
3.0767e-07
-2.13339e-07
3.58015e-07
-2.81734e-07
-3.63793e-07
4.15454e-07
6.48219e-11
1.58183e-09
2.72047e-10
4.78504e-09
6.45738e-10
8.20214e-09
1.21406e-09
1.18084e-08
2.00997e-09
1.55698e-08
3.07196e-09
1.9442e-08
4.44501e-09
2.33684e-08
6.1816e-09
2.72786e-08
8.34288e-09
3.10864e-08
1.1e-08
3.46877e-08
1.42355e-08
3.7958e-08
1.81454e-08
4.07495e-08
2.28408e-08
4.28879e-08
2.84496e-08
4.41693e-08
3.51196e-08
4.43557e-08
4.30202e-08
4.31706e-08
5.23456e-08
4.02938e-08
6.33174e-08
3.5355e-08
7.6187e-08
2.79276e-08
9.12393e-08
1.75204e-08
1.08794e-07
3.56984e-09
1.29208e-07
-1.45689e-08
1.52877e-07
-3.76317e-08
1.80232e-07
-6.64574e-08
2.11748e-07
-1.02e-07
2.47932e-07
-1.45341e-07
2.89327e-07
-1.97713e-07
3.36519e-07
-2.60531e-07
3.90142e-07
-3.35357e-07
-4.24616e-07
4.50965e-07
7.06096e-11
1.51122e-09
2.97715e-10
4.55793e-09
7.09013e-10
7.79084e-09
1.33673e-09
1.11806e-08
2.21834e-09
1.46882e-08
3.39735e-09
1.8263e-08
4.92428e-09
2.18415e-08
6.85769e-09
2.53452e-08
9.2654e-09
2.86787e-08
1.22258e-08
3.17273e-08
1.58297e-08
3.43542e-08
2.01816e-08
3.63976e-08
2.5402e-08
3.76675e-08
3.16293e-08
3.7942e-08
3.90221e-08
3.69628e-08
4.77619e-08
3.44308e-08
5.80555e-08
3.00002e-08
7.01378e-08
2.32727e-08
8.42746e-08
1.37908e-08
1.00765e-07
1.03042e-09
1.19941e-07
-1.56067e-08
1.42173e-07
-3.68009e-08
1.67866e-07
-6.3325e-08
1.97462e-07
-9.60527e-08
2.31432e-07
-1.3597e-07
2.70277e-07
-1.84187e-07
3.14522e-07
-2.41958e-07
3.64716e-07
-3.10724e-07
4.21447e-07
-3.92089e-07
-4.88566e-07
4.85396e-07
7.57821e-11
1.43544e-09
3.20957e-10
4.31276e-09
7.66828e-10
7.34497e-09
1.44967e-09
1.04978e-08
2.41146e-09
1.37264e-08
3.70075e-09
1.69737e-08
5.37363e-09
2.01686e-08
7.4948e-09
2.3224e-08
1.01388e-08
2.60347e-08
1.33916e-08
2.84745e-08
1.73521e-08
3.03938e-08
2.21336e-08
3.1616e-08
2.78664e-08
3.19348e-08
3.46992e-08
3.11092e-08
4.28021e-08
2.88599e-08
5.23687e-08
2.48642e-08
6.36186e-08
1.87502e-08
7.68004e-08
1.00908e-08
9.21937e-08
-1.60242e-09
1.1011e-07
-1.68863e-08
1.30896e-07
-3.63928e-08
1.54933e-07
-6.08375e-08
1.82634e-07
-9.10263e-08
2.14445e-07
-1.27863e-07
2.50831e-07
-1.72356e-07
2.92278e-07
-2.25634e-07
3.39278e-07
-2.88958e-07
3.9233e-07
-3.63776e-07
4.5196e-07
-4.51719e-07
-5.55318e-07
5.18712e-07
8.05999e-11
1.35484e-09
3.4279e-10
4.05057e-09
8.21456e-10
6.86631e-09
1.5569e-09
9.76236e-09
2.59563e-09
1.26877e-08
3.99124e-09
1.55781e-08
5.80543e-09
1.83544e-08
8.1091e-09
2.09203e-08
1.09837e-08
2.31601e-08
1.45227e-08
2.49355e-08
1.88333e-08
2.60832e-08
2.4038e-08
2.64114e-08
3.02767e-08
2.5696e-08
3.77091e-08
2.36768e-08
4.65167e-08
2.00524e-08
5.69053e-08
1.44756e-08
6.91078e-08
6.54774e-09
8.33859e-08
-4.18726e-09
1.00032e-07
-1.82487e-08
1.19372e-07
-3.62258e-08
1.41763e-07
-5.87841e-08
1.67597e-07
-8.66712e-08
1.97293e-07
-1.20722e-07
2.31293e-07
-1.61863e-07
2.70053e-07
-2.11117e-07
3.14029e-07
-2.6961e-07
3.63668e-07
-3.38596e-07
4.19399e-07
-4.19507e-07
4.81667e-07
-5.13988e-07
-6.24457e-07
5.50807e-07
8.53266e-11
1.26951e-09
3.64246e-10
3.77165e-09
8.75205e-10
6.35535e-09
1.66254e-09
8.97503e-09
2.77727e-09
1.15729e-08
4.27808e-09
1.40773e-08
6.23229e-09
1.64002e-08
8.71711e-09
1.84355e-08
1.18209e-08
2.00562e-08
1.5645e-08
2.11114e-08
2.03048e-08
2.14234e-08
2.59321e-08
2.07841e-08
3.26769e-08
1.89512e-08
4.07097e-08
1.5644e-08
5.02236e-08
1.05385e-08
6.1437e-08
3.26226e-09
7.45952e-08
-6.61049e-09
8.99729e-08
-1.95649e-08
1.07876e-07
-3.61514e-08
1.28641e-07
-5.69909e-08
1.52637e-07
-8.27805e-08
1.80263e-07
-1.14297e-07
2.11938e-07
-1.52398e-07
2.481e-07
-1.98024e-07
2.89181e-07
-2.52198e-07
3.356e-07
-3.16028e-07
3.87735e-07
-3.90732e-07
4.45915e-07
-4.77687e-07
5.10495e-07
-5.78567e-07
-6.95439e-07
5.81476e-07
9.02171e-11
1.1793e-09
3.86322e-10
3.47554e-09
9.30318e-10
5.81135e-09
1.77056e-09
8.13479e-09
2.96262e-09
1.03809e-08
4.57027e-09
1.24696e-08
6.66652e-09
1.43039e-08
9.33493e-09
1.57671e-08
1.2671e-08
1.67202e-08
1.67837e-08
1.69988e-08
2.1797e-08
1.64101e-08
2.78521e-08
1.4729e-08
3.51091e-08
1.16942e-08
4.37494e-08
7.00365e-09
5.39779e-08
3.09973e-10
6.60248e-08
-8.78463e-09
8.01478e-08
-2.07335e-08
9.66341e-08
-3.60513e-08
1.15801e-07
-5.53187e-08
1.37998e-07
-7.91874e-08
1.636e-07
-1.08383e-07
1.93011e-07
-1.43707e-07
2.26647e-07
-1.86034e-07
2.64931e-07
-2.36309e-07
3.08269e-07
-2.95537e-07
3.57024e-07
-3.64783e-07
4.11486e-07
-4.45193e-07
4.71832e-07
-5.38033e-07
5.38323e-07
-6.45058e-07
-7.67517e-07
6.10401e-07
9.55074e-11
1.08379e-09
4.09946e-10
3.1611e-09
9.88873e-10
5.23242e-09
1.88468e-09
7.23898e-09
3.15749e-09
9.10806e-09
4.87619e-09
1.07509e-08
7.11954e-09
1.20606e-08
9.97754e-09
1.29091e-08
1.35528e-08
1.31449e-08
1.7962e-08
1.25895e-08
2.33379e-08
1.10341e-08
2.9831e-08
8.23586e-09
3.76117e-08
3.91352e-09
4.68721e-08
-2.25675e-09
5.78283e-08
-1.06462e-08
7.07223e-08
-2.16786e-08
8.58237e-08
-3.5835e-08
1.03431e-07
-5.3659e-08
1.23874e-07
-7.57609e-08
1.47507e-07
-1.02821e-07
1.74713e-07
-1.35589e-07
2.05894e-07
-1.74888e-07
2.41461e-07
-2.21601e-07
2.81816e-07
-2.76664e-07
3.2733e-07
-3.41051e-07
3.783e-07
-4.15752e-07
4.34899e-07
-5.01793e-07
4.97075e-07
-6.00209e-07
5.64915e-07
-7.12899e-07
-8.39699e-07
6.37097e-07
1.01405e-10
9.82384e-10
4.35934e-10
2.82657e-09
1.05271e-09
4.61565e-09
2.00816e-09
6.28353e-09
3.367e-09
7.74922e-09
5.20324e-09
8.91469e-09
7.60145e-09
9.66237e-09
1.06581e-08
9.85251e-09
1.44828e-08
9.32017e-09
1.92004e-08
7.87198e-09
2.4952e-08
5.28249e-09
3.18976e-08
1.29024e-09
4.02175e-08
-4.40637e-09
5.01144e-08
-1.21536e-08
6.18152e-08
-2.2347e-08
7.55732e-08
-3.54366e-08
9.16691e-08
-5.19309e-08
1.10412e-07
-7.24017e-08
1.32138e-07
-9.74868e-08
1.57209e-07
-1.27892e-07
1.86009e-07
-1.6439e-07
2.18936e-07
-2.07814e-07
2.56386e-07
-2.59051e-07
2.98742e-07
-3.19019e-07
3.46333e-07
-3.88642e-07
3.99393e-07
-4.68812e-07
4.57966e-07
-5.60366e-07
5.21696e-07
-6.63938e-07
5.90148e-07
-7.81351e-07
-9.10477e-07
6.60926e-07
1.08084e-10
8.743e-10
4.64966e-10
2.46969e-09
1.12335e-09
3.95727e-09
2.14373e-09
5.26315e-09
3.59541e-09
6.29755e-09
5.55758e-09
6.95252e-09
8.12063e-09
7.09932e-09
1.13874e-08
6.5857e-09
1.54749e-08
5.23273e-09
2.05154e-08
2.83141e-09
2.6659e-08
-8.61077e-10
3.40745e-08
-6.1253e-09
4.2952e-08
-1.32839e-08
5.35043e-08
-2.27059e-08
6.59689e-08
-3.48116e-08
8.06092e-08
-5.00769e-08
9.77154e-08
-6.90371e-08
1.17604e-07
-9.22906e-08
1.40618e-07
-1.20501e-07
1.67121e-07
-1.54395e-07
1.97493e-07
-1.94762e-07
2.32121e-07
-2.42443e-07
2.71387e-07
-2.98317e-07
3.15644e-07
-3.63276e-07
3.65189e-07
-4.38187e-07
4.20211e-07
-5.23834e-07
4.80686e-07
-6.20841e-07
5.46124e-07
-7.29376e-07
6.15056e-07
-8.50283e-07
-9.76311e-07
6.8089e-07
1.15673e-10
7.58626e-10
4.97565e-10
2.0878e-09
1.20198e-09
3.25285e-09
2.29349e-09
4.17163e-09
3.84601e-09
4.74503e-09
5.94395e-09
4.85458e-09
8.68347e-09
4.3598e-09
1.21739e-08
3.09528e-09
1.65392e-08
8.67447e-10
2.19195e-08
-2.54896e-09
2.84731e-08
-7.41468e-09
3.63778e-08
-1.403e-08
4.5833e-08
-2.2739e-08
5.7061e-08
-3.39339e-08
7.03088e-08
-4.80594e-08
8.58486e-08
-6.56167e-08
1.03978e-07
-8.71666e-08
1.2502e-07
-1.13332e-07
1.49317e-07
-1.44798e-07
1.77233e-07
-1.8231e-07
2.09138e-07
-2.26667e-07
2.45403e-07
-2.78708e-07
2.86383e-07
-3.39298e-07
3.324e-07
-4.09293e-07
3.83719e-07
-4.89506e-07
4.40509e-07
-5.80624e-07
5.02807e-07
-6.8314e-07
5.7056e-07
-7.97129e-07
6.43398e-07
-9.23121e-07
-1.05835e-06
7.25441e-07
1.24271e-10
6.34354e-10
5.34103e-10
1.67796e-09
1.28943e-09
2.49753e-09
2.45892e-09
3.00214e-09
4.12111e-09
3.08284e-09
6.36561e-09
2.61009e-09
9.29433e-09
1.43108e-09
1.30229e-08
-6.33336e-10
1.76824e-08
-3.79197e-09
2.34203e-08
-8.28691e-09
3.0403e-08
-1.43974e-08
3.88169e-08
-2.24438e-08
4.88699e-08
-3.2792e-08
6.07933e-08
-4.58573e-08
7.48419e-08
-6.21081e-08
9.12952e-08
-8.207e-08
1.10456e-07
-1.06327e-07
1.32649e-07
-1.35525e-07
1.58216e-07
-1.70365e-07
1.87511e-07
-2.11605e-07
2.2089e-07
-2.60046e-07
2.58699e-07
-3.16517e-07
3.01256e-07
-3.81855e-07
3.48835e-07
-4.56872e-07
4.01634e-07
-5.42305e-07
4.5975e-07
-6.3874e-07
5.23182e-07
-7.46572e-07
5.91893e-07
-8.6584e-07
6.65594e-07
-9.96822e-07
-1.13639e-06
7.43627e-07
1.33925e-10
5.00428e-10
5.74778e-10
1.23711e-09
1.38614e-09
1.68617e-09
2.64079e-09
1.74748e-09
4.42192e-09
1.30172e-09
6.82423e-09
2.07775e-10
9.95535e-09
-1.70004e-09
1.39372e-08
-4.61515e-09
1.89073e-08
-8.76215e-09
2.50209e-08
-1.44005e-08
3.24517e-08
-2.18282e-08
4.13942e-08
-3.13863e-08
5.20641e-08
-4.3462e-08
6.47001e-08
-5.84933e-08
7.95639e-08
-7.69719e-08
9.69396e-08
-9.94457e-08
1.17133e-07
-1.2652e-07
1.40466e-07
-1.58858e-07
1.67275e-07
-1.97175e-07
1.97901e-07
-2.4223e-07
2.32675e-07
-2.9482e-07
2.71909e-07
-3.55751e-07
3.15875e-07
-4.2582e-07
3.64777e-07
-5.05774e-07
4.18718e-07
-5.96247e-07
4.77686e-07
-6.97707e-07
5.41532e-07
-8.10418e-07
6.09944e-07
-9.34252e-07
6.82179e-07
-1.06906e-06
-1.21105e-06
7.56841e-07
1.44648e-10
3.55781e-10
6.19635e-10
7.62125e-10
1.49221e-09
8.13593e-10
2.8393e-09
4.00393e-10
4.74864e-09
-6.07627e-10
7.32004e-09
-2.36362e-09
1.06667e-08
-5.04666e-09
1.49165e-08
-8.86496e-09
2.02137e-08
-1.40594e-08
2.67202e-08
-2.0907e-08
3.46171e-08
-2.97251e-08
4.41057e-08
-4.08749e-08
5.54088e-08
-5.47651e-08
6.87712e-08
-7.18557e-08
8.44592e-08
-9.26598e-08
1.02759e-07
-1.17746e-07
1.23977e-07
-1.47738e-07
1.48428e-07
-1.8331e-07
1.76439e-07
-2.25185e-07
2.08328e-07
-2.7412e-07
2.44399e-07
-3.30891e-07
2.8492e-07
-3.96272e-07
3.30102e-07
-4.71003e-07
3.80066e-07
-5.55739e-07
4.34812e-07
-6.50992e-07
4.94204e-07
-7.57099e-07
5.57921e-07
-8.74135e-07
6.25407e-07
-1.00174e-06
6.95682e-07
-1.13933e-06
-1.28274e-06
7.6737e-07
1.56416e-10
1.99365e-10
6.68584e-10
2.49958e-10
1.60744e-09
-1.25266e-10
3.05402e-09
-1.04618e-09
5.10059e-09
-2.65419e-09
7.85192e-09
-5.11496e-09
1.14266e-08
-8.62136e-09
1.59585e-08
-1.33968e-08
2.15979e-08
-1.96988e-08
2.85131e-08
-2.78222e-08
3.68917e-08
-3.81037e-08
4.69413e-08
-5.09245e-08
5.88903e-08
-6.67141e-08
7.29877e-08
-8.59531e-08
8.95026e-08
-1.09175e-07
1.08722e-07
-1.36965e-07
1.30945e-07
-1.69961e-07
1.56481e-07
-2.08846e-07
1.85636e-07
-2.54341e-07
2.18706e-07
-3.07189e-07
2.55956e-07
-3.68141e-07
2.97604e-07
-4.3792e-07
3.43791e-07
-5.1719e-07
3.94545e-07
-6.06492e-07
4.49767e-07
-7.06215e-07
5.09197e-07
-8.16529e-07
5.72356e-07
-9.37294e-07
6.38539e-07
-1.06792e-06
7.06676e-07
-1.20747e-06
-1.35157e-06
7.75511e-07
1.69178e-10
3.0188e-11
7.21415e-10
-3.02278e-10
1.73134e-09
-1.13519e-09
3.28405e-09
-2.59889e-09
5.47627e-09
-4.84642e-09
8.41763e-09
-8.05632e-09
1.22319e-08
-1.24357e-08
1.70585e-08
-1.82234e-08
2.30535e-08
-2.56937e-08
3.0391e-08
-3.51597e-08
3.92641e-08
-4.69768e-08
4.98857e-08
-6.1546e-08
6.24882e-08
-7.93166e-08
7.73235e-08
-1.00788e-07
9.46606e-08
-1.26512e-07
1.14783e-07
-1.57087e-07
1.37983e-07
-1.93161e-07
1.64556e-07
-2.35418e-07
1.94786e-07
-2.84571e-07
2.28936e-07
-3.4134e-07
2.67231e-07
-4.06435e-07
3.09828e-07
-4.80517e-07
3.56788e-07
-5.6415e-07
4.08056e-07
-6.5776e-07
4.63435e-07
-7.61593e-07
5.22539e-07
-8.75633e-07
5.84774e-07
-9.99529e-07
6.49341e-07
-1.13249e-06
7.15153e-07
-1.27328e-06
-1.41751e-06
7.81094e-07
1.82856e-10
-1.52667e-10
7.77822e-10
-8.97242e-10
1.8632e-09
-2.22057e-09
3.5281e-09
-4.26379e-09
5.87359e-09
-7.19192e-09
9.01399e-09
-1.11967e-08
1.30781e-08
-1.64997e-08
1.82103e-08
-2.33556e-08
2.45719e-08
-3.20554e-08
3.23422e-08
-4.29301e-08
4.17191e-08
-5.63536e-08
5.2919e-08
-7.2746e-08
6.61773e-08
-9.25749e-08
8.17462e-08
-1.16357e-07
9.98925e-08
-1.44658e-07
1.20893e-07
-1.78088e-07
1.4503e-07
-2.17298e-07
1.72578e-07
-2.62967e-07
2.03797e-07
-3.15789e-07
2.38912e-07
-3.76455e-07
2.78099e-07
-4.45621e-07
3.21447e-07
-5.23865e-07
3.68942e-07
-6.11645e-07
4.20446e-07
-7.09264e-07
4.75659e-07
-8.16806e-07
5.34091e-07
-9.34065e-07
5.95067e-07
-1.0605e-06
6.57727e-07
-1.19515e-06
7.21003e-07
-1.33656e-06
-1.48043e-06
7.83918e-07
1.9736e-10
-3.50026e-10
8.37429e-10
-1.53731e-09
2.00215e-09
-3.38529e-09
3.78455e-09
-6.04619e-09
6.28993e-09
-9.6973e-09
9.63703e-09
-1.45438e-08
1.39592e-08
-2.0822e-08
1.94057e-08
-2.88021e-08
2.61424e-08
-3.87921e-08
3.43528e-08
-5.11404e-08
4.42383e-08
-6.62391e-08
5.6018e-08
-8.45257e-08
6.9928e-08
-1.06485e-07
8.62189e-08
-1.32648e-07
1.05153e-07
-1.63592e-07
1.26997e-07
-1.99932e-07
1.52017e-07
-2.42318e-07
1.80467e-07
-2.91416e-07
2.12574e-07
-3.47896e-07
2.48523e-07
-4.12405e-07
2.88431e-07
-4.85529e-07
3.32321e-07
-5.67755e-07
3.80105e-07
-6.5943e-07
4.31561e-07
-7.6072e-07
4.86291e-07
-8.71536e-07
5.43724e-07
-9.91499e-07
6.03125e-07
-1.11991e-06
6.63605e-07
-1.25563e-06
7.24131e-07
-1.39708e-06
-1.54015e-06
7.83856e-07
2.12581e-10
-5.62606e-10
8.99801e-10
-2.22453e-09
2.14717e-09
-4.63267e-09
4.05154e-09
-7.95057e-09
6.72223e-09
-1.2368e-08
1.02822e-08
-1.81037e-08
1.48689e-08
-2.54087e-08
2.06359e-08
-3.45691e-08
2.77529e-08
-4.59091e-08
3.64067e-08
-5.97943e-08
4.68012e-08
-7.66336e-08
5.91566e-08
-9.68811e-08
7.37077e-08
-1.21036e-07
9.07013e-08
-1.49642e-07
1.10391e-07
-1.83282e-07
1.33033e-07
-2.22574e-07
1.58873e-07
-2.68158e-07
1.88137e-07
-3.20681e-07
2.21019e-07
-3.80778e-07
2.57656e-07
-4.49041e-07
2.98102e-07
-5.25975e-07
3.42316e-07
-6.11969e-07
3.90139e-07
-7.07253e-07
4.41259e-07
-8.11839e-07
4.95198e-07
-9.25476e-07
5.51326e-07
-1.04763e-06
6.08861e-07
-1.17744e-06
6.66905e-07
-1.31367e-06
7.24482e-07
-1.45466e-06
-1.59654e-06
7.80865e-07
2.28406e-10
-7.91012e-10
9.64468e-10
-2.96059e-09
2.29718e-09
-5.96538e-09
4.32705e-09
-9.98044e-09
7.16718e-09
-1.52081e-08
1.09444e-08
-2.18809e-08