/*--------------------------------*- C++ -*----------------------------------*\
| =========                 |                                                 |
| \\      /  F ield         | foam-extend: Open Source CFD                    |
|  \\    /   O peration     | Version:     4.0                                |
|   \\  /    A nd           | Web:         http://www.foam-extend.org         |
|    \\/     M anipulation  |                                                 |
\*---------------------------------------------------------------------------*/
FoamFile
{
    version     2.0;
    format      ascii;
    class       volVectorField;
    location    "60";
    object      U;
}
// * * * * * * * * * * * * * * * * * * * * * * * * * * * * * * * * * * * * * //

dimensions      [0 1 -1 0 0 0 0];

internalField   nonuniform List<vector> 
36000
(
(-3.3118e-07 1.53794e-06 -2.55463e-25)
(-3.31428e-06 4.37429e-06 2.63761e-25)
(-9.53314e-06 7.06051e-06 0)
(-1.90519e-05 9.58957e-06 0)
(-3.18747e-05 1.19555e-05 -2.29269e-25)
(-4.80242e-05 1.41523e-05 -2.17514e-25)
(-6.75225e-05 1.61749e-05 0)
(-9.03668e-05 1.80187e-05 0)
(-0.000116526 1.96801e-05 0)
(-0.000145941 2.11564e-05 0)
(-0.000178522 2.24457e-05 0)
(-0.000214153 2.35466e-05 -3.04633e-25)
(-0.000252683 2.44585e-05 -5.66559e-28)
(-0.000293935 2.51811e-05 -2.66512e-25)
(-0.000337694 2.57143e-05 2.48933e-25)
(-0.000383716 2.60581e-05 -2.3156e-25)
(-0.000431721 2.62124e-05 4.31809e-25)
(-0.000481395 2.61765e-05 -2.00736e-25)
(-0.000532385 2.5949e-05 1.86065e-25)
(-0.000584297 2.5527e-05 5.18065e-25)
(-0.000636693 2.49059e-05 9.5365e-29)
(-0.000689086 2.40788e-05 5.90973e-25)
(-0.00074093 2.30358e-05 -1.36263e-25)
(-0.000791616 2.17642e-05 -2.50779e-25)
(-0.000840459 2.0248e-05 -2.30832e-25)
(-0.000886687 1.84674e-05 0)
(-0.000929434 1.63992e-05 0)
(-0.000967727 1.40142e-05 0)
(-0.00100043 1.12688e-05 1.59949e-25)
(-0.00102616 8.12031e-06 -2.91425e-25)
(-4.88606e-07 4.63091e-06 0)
(-3.73002e-06 1.31763e-05 0)
(-1.01487e-05 2.12747e-05 0)
(-1.98081e-05 2.89048e-05 9.67539e-25)
(-3.27125e-05 3.6048e-05 -2.26574e-25)
(-4.88843e-05 4.26864e-05 2.17495e-25)
(-6.83449e-05 4.88035e-05 0)
(-9.10912e-05 5.43855e-05 0)
(-0.000117092 5.94212e-05 -7.35529e-25)
(-0.000146286 6.39017e-05 6.89864e-25)
(-0.000178587 6.78206e-05 -6.5028e-25)
(-0.000213873 7.11735e-05 6.08105e-25)
(-0.000251997 7.39576e-05 2.85006e-25)
(-0.000292778 7.61716e-05 2.66439e-25)
(-0.000336 7.78147e-05 4.97203e-25)
(-0.000381417 7.88864e-05 0)
(-0.000428748 7.93861e-05 -1.2964e-24)
(-0.000477673 7.93113e-05 -1.27949e-27)
(-0.000527836 7.86572e-05 1.49084e-24)
(-0.000578839 7.74147e-05 -1.03597e-24)
(-0.000630239 7.55699e-05 -6.40345e-25)
(-0.000681541 7.31017e-05 5.92135e-25)
(-0.000732193 6.99804e-05 -5.45597e-25)
(-0.000781577 6.61674e-05 1.00629e-24)
(-0.000828998 6.16143e-05 3.65386e-28)
(-0.000873677 5.62619e-05 8.47589e-25)
(-0.000914739 5.00404e-05 -1.16598e-24)
(-0.000951212 4.28618e-05 0)
(-0.000981955 3.45973e-05 0)
(-0.00100532 2.51244e-05 0)
(-7.99246e-07 7.64763e-06 1.02725e-24)
(-4.55062e-06 2.17667e-05 5.88811e-27)
(-1.1364e-05 3.51554e-05 -1.52227e-24)
(-2.13013e-05 4.77774e-05 1.94081e-24)
(-3.4367e-05 5.96015e-05 -2.29558e-24)
(-5.05828e-05 7.0597e-05 -1.74955e-24)
(-6.99687e-05 8.07358e-05 3.30489e-24)
(-9.25209e-05 8.99941e-05 -1.55804e-24)
(-0.000118207 9.83523e-05 0)
(-0.000146966 0.000105795 0)
(-0.000178708 0.00011231 0)
(-0.000213314 0.00011789 0)
(-0.000250631 0.000122528 1.14438e-24)
(-0.000290476 0.000126221 -2.67076e-24)
(-0.000332633 0.000128968 1.99549e-24)
(-0.000376849 0.000130766 0)
(-0.000422838 0.000131614 8.66321e-25)
(-0.000470275 0.000131507 -8.03931e-25)
(-0.000518797 0.000130436 0)
(-0.000567995 0.000128386 0)
(-0.000617415 0.000125332 3.20636e-24)
(-0.000666549 0.00012124 -1.77639e-24)
(-0.000714833 0.00011606 0)
(-0.00076163 0.000109729 3.77478e-28)
(-0.00080623 0.000102166 -9.27132e-25)
(-0.000847835 9.32739e-05 -8.55009e-25)
(-0.000885554 8.29388e-05 7.73133e-25)
(-0.000918417 7.10163e-05 7.11446e-25)
(-0.000945278 5.73004e-05 0)
(-0.00096395 4.16064e-05 1.75689e-24)
(-1.25375e-06 1.05398e-05 0)
(-5.75178e-06 3.00114e-05 0)
(-1.31435e-05 4.84902e-05 5.09201e-25)
(-2.34882e-05 6.59252e-05 -1.94933e-24)
(-3.67904e-05 8.22713e-05 3.69654e-24)
(-5.30704e-05 9.74847e-05 -2.62801e-24)
(-7.23463e-05 0.000111525 0)
(-9.46126e-05 0.000124357 0)
(-0.000119835 0.000135952 -2.22001e-24)
(-0.000147952 0.000146286 2.77991e-24)
(-0.000178871 0.000155341 -1.30375e-24)
(-0.00021247 0.000163104 -1.2272e-24)
(-0.000248595 0.000169565 2.29579e-24)
(-0.000287058 0.000174717 -2.14102e-24)
(-0.000327637 0.000178556 -9.98994e-25)
(-0.000370076 0.000181078 0)
(-0.000414079 0.000182278 -3.47734e-24)
(-0.000459313 0.000182149 -4.55587e-27)
(-0.000505403 0.000180676 3.00032e-24)
(-0.000551926 0.000177838 3.61887e-27)
(-0.000598414 0.000173599 2.32501e-27)
(-0.000644339 0.000167911 3.37848e-28)
(-0.000689115 0.000160705 -1.09699e-24)
(-0.000732084 0.000151893 2.02602e-24)
(-0.000772511 0.000141364 0)
(-0.000809571 0.000128986 -2.48345e-29)
(-0.000842349 0.000114602 3.12433e-24)
(-0.000869877 9.80169e-05 -1.43366e-24)
(-0.000891023 7.89588e-05 -3.91153e-24)
(-0.00090278 5.7187e-05 -3.53629e-24)
(-1.83859e-06 1.32628e-05 1.55832e-24)
(-7.29825e-06 3.77859e-05 -3.22333e-24)
(-1.54354e-05 6.10823e-05 2.04893e-24)
(-2.63057e-05 8.30854e-05 1.96051e-24)
(-3.9913e-05 0.000103736 -1.85468e-24)
(-5.62754e-05 0.000122976 8.7882e-25)
(-7.5408e-05 0.000140751 -2.50447e-24)
(-9.73024e-05 0.000157014 6.29784e-24)
(-0.000121922 0.000171726 -7.34427e-25)
(-0.000149203 0.000184853 1.40022e-24)
(-0.000179049 0.00019637 -1.31498e-24)
(-0.000211335 0.000206255 1.22708e-24)
(-0.000245904 0.000214492 0)
(-0.000282561 0.000221072 0)
(-0.000321079 0.000225985 4.02462e-24)
(-0.000361192 0.000229223 -1.87053e-24)
(-0.000402597 0.000230779 1.73951e-24)
(-0.000444947 0.000230639 1.61698e-24)
(-0.000487852 0.000228784 -3.00856e-24)
(-0.000530873 0.000225184 -4.18413e-24)
(-0.000573519 0.000219792 1.2902e-24)
(-0.000615242 0.000212546 4.77947e-24)
(-0.000655427 0.000203357 -2.20301e-24)
(-0.000693388 0.000192116 9.7145e-27)
(-0.000728359 0.000178681 1.87293e-24)
(-0.000759481 0.000162889 -1.71978e-24)
(-0.000785811 0.000144545 -1.56698e-24)
(-0.000806374 0.000123407 8.95131e-27)
(-0.000820098 9.91549e-05 1.29502e-24)
(-0.000822833 7.15326e-05 2.36181e-24)
(-2.53665e-06 1.5777e-05 4.70347e-24)
(-9.14538e-06 4.49794e-05 -1.08011e-24)
(-1.81741e-05 7.27552e-05 0)
(-2.96736e-05 9.90217e-05 -9.89211e-25)
(-4.3646e-05 0.000123705 -4.68911e-24)
(-6.01061e-05 0.00014673 5.32102e-24)
(-7.90644e-05 0.000168031 2.52474e-24)
(-0.000100509 0.000187545 -1.57301e-24)
(-0.000124398 0.000205221 1.50108e-24)
(-0.000150664 0.000221014 -7.01551e-24)
(-0.000179208 0.000234888 3.94797e-24)
(-0.0002099 0.000246813 -1.23513e-24)
(-0.000242575 0.000256767 4.62749e-24)
(-0.000277033 0.000264731 -2.16024e-24)
(-0.00031304 0.000270691 -6.05803e-24)
(-0.000350318 0.000274633 3.76225e-24)
(-0.000388551 0.000276545 -3.50175e-24)
(-0.000427379 0.000276406 -5.72049e-27)
(-0.000466393 0.00027419 -1.52247e-24)
(-0.000505136 0.000269858 -1.40551e-24)
(-0.00054309 0.000263351 5.18737e-24)
(-0.000579679 0.000254593 -4.78994e-24)
(-0.00061426 0.000243477 0)
(-0.000646112 0.00022987 -2.04267e-24)
(-0.000674433 0.000213606 -1.87578e-24)
(-0.000698326 0.000194491 -3.46734e-24)
(-0.000716813 0.000172294 3.17202e-24)
(-0.00072891 0.000146724 0)
(-0.000733673 0.000117501 6.57848e-24)
(-0.000725412 8.42732e-05 -1.20043e-24)
(-3.32793e-06 1.80491e-05 0)
(-1.12408e-05 5.14973e-05 0)
(-2.12826e-05 8.33573e-05 0)
(-3.34973e-05 0.00011353 -8.62922e-27)
(-4.78845e-05 0.000141924 6.61216e-24)
(-6.44537e-05 0.000168452 -5.34804e-24)
(-8.32092e-05 0.000193027 3.3846e-24)
(-0.000104132 0.000215575 -6.37491e-24)
(-0.000127178 0.000236029 -1.50799e-24)
(-0.000152271 0.000254333 -2.8292e-24)
(-0.000179307 0.000270437 2.64951e-24)
(-0.000208149 0.000284301 1.24968e-24)
(-0.000238626 0.000295892 1.01562e-26)
(-0.00027053 0.000305183 0)
(-0.000303613 0.000312152 -1.18273e-26)
(-0.000337589 0.000316778 1.88887e-24)
(-0.000372125 0.00031904 -1.75199e-24)
(-0.000406846 0.000318911 1.63189e-24)
(-0.000441321 0.000316355 6.07657e-24)
(-0.000475069 0.000311323 -6.6849e-27)
(-0.000507547 0.000303744 -2.61303e-24)
(-0.000538147 0.000293526 -2.40383e-24)
(-0.000566192 0.000280546 -7.26937e-27)
(-0.000590926 0.000264649 -2.07179e-24)
(-0.000611507 0.000245645 -3.79155e-24)
(-0.000626997 0.000223309 5.21115e-24)
(-0.000636385 0.000197383 -1.57847e-24)
(-0.000638659 0.000167561 -2.90311e-24)
(-0.000633136 0.000133553 -5.28681e-24)
(-0.00061203 9.50286e-05 2.41984e-24)
(-4.19033e-06 2.00521e-05 -4.26751e-24)
(-1.35266e-05 5.72634e-05 0)
(-2.46753e-05 9.27653e-05 -4.22229e-24)
(-3.76718e-05 0.000126442 4.99997e-24)
(-5.25113e-05 0.000158186 -5.70507e-24)
(-6.9196e-05 0.00018789 7.2072e-24)
(-8.7722e-05 0.000215454 -6.81269e-24)
(-0.000108063 0.000240785 1.59237e-24)
(-0.000130165 0.000263802 3.0113e-24)
(-0.000153946 0.000284432 -7.93963e-27)
(-0.000179294 0.000302613 -5.34911e-24)
(-0.000206063 0.000318291 5.01113e-24)
(-0.000234073 0.000331421 -4.67602e-24)
(-0.000263104 0.000341966 -8.7534e-24)
(-0.000292897 0.000349893 6.11592e-24)
(-0.000323152 0.000355172 1.89706e-24)
(-0.000353521 0.000357771 -5.31823e-24)
(-0.000383605 0.000357654 -3.3019e-24)
(-0.000412956 0.000354777 -3.04675e-24)
(-0.000441063 0.000349075 8.50107e-24)
(-0.000467356 0.000340469 -2.6375e-24)
(-0.000491194 0.000328849 7.8369e-27)
(-0.000511865 0.000314076 -4.5012e-24)
(-0.000528574 0.000295975 8.26471e-24)
(-0.000540444 0.000274327 3.79192e-24)
(-0.000546489 0.000248898 -3.4843e-24)
(-0.000545674 0.000219405 1.75433e-26)
(-0.000536931 0.000185505 2.94041e-24)
(-0.000520009 0.000146901 5.32831e-24)
(-0.000484353 0.000103363 -7.30269e-24)
(-5.10057e-06 2.17669e-05 4.32276e-24)
(-1.59414e-05 6.22214e-05 -5.58658e-24)
(-2.82614e-05 0.000100887 -4.26532e-24)
(-4.20849e-05 0.00013763 4.04296e-24)
(-5.74007e-05 0.000172325 3.84625e-24)
(-7.42017e-05 0.000204849 -1.80452e-24)
(-9.2473e-05 0.000235082 0)
(-0.000112178 0.000262916 0)
(-0.000133252 0.00028825 1.51954e-24)
(-0.000155603 0.000310996 2.85678e-24)
(-0.000179109 0.000331076 8.06794e-24)
(-0.000203613 0.000348421 -5.03755e-24)
(-0.000228923 0.000362972 -1.696e-26)
(-0.000254807 0.000374678 4.41008e-24)
(-0.000280992 0.000383496 -2.05616e-24)
(-0.00030716 0.000389381 -3.82708e-24)
(-0.000332944 0.000392293 1.06951e-23)
(-0.000357927 0.000392184 3.30669e-24)
(-0.000381634 0.000388996 1.20905e-26)
(-0.000403528 0.000382655 1.03438e-26)
(-0.000423007 0.000373065 -6.52874e-27)
(-0.000439399 0.000360102 2.44214e-24)
(-0.000451956 0.000343609 6.76586e-24)
(-0.000459847 0.000323397 2.72999e-26)
(-0.000462156 0.000299233 3.82867e-24)
(-0.000457864 0.000270847 -1.05756e-23)
(-0.00044589 0.000237941 -6.45448e-24)
(-0.000425068 0.00020016 1.11627e-26)
(-0.000395922 0.000157171 2.70959e-24)
(-0.000344155 0.000108872 4.86375e-24)
(-6.03505e-06 2.31817e-05 -3.275e-24)
(-1.84229e-05 6.63356e-05 5.63947e-24)
(-3.19478e-05 0.00010766 -2.16553e-24)
(-4.66213e-05 0.000147006 6.15394e-24)
(-6.24232e-05 0.00018423 -3.87541e-24)
(-7.93341e-05 0.000219188 -1.82712e-24)
(-9.73257e-05 0.000251745 -6.9432e-24)
(-0.000116347 0.000281772 6.53293e-24)
(-0.000136323 0.000309151 -3.09126e-24)
(-0.000157147 0.000333777 0)
(-0.000178683 0.000355552 -5.42899e-24)
(-0.000200762 0.000374393 5.07693e-24)
(-0.000223177 0.000390224 -2.38819e-24)
(-0.000245682 0.00040298 4.43506e-24)
(-0.000267986 0.000412602 2.06271e-24)
(-0.000289754 0.000419034 0)
(-0.000310598 0.000422221 2.41276e-26)
(-0.000330076 0.000422102 0)
(-0.000347689 0.000418606 2.00436e-26)
(-0.000362872 0.000411647 5.74895e-24)
(-0.000374992 0.000401112 5.33344e-24)
(-0.000383346 0.000386867 2.46034e-24)
(-0.000387152 0.000368743 -1.36034e-23)
(-0.000385548 0.000346526 1.28578e-26)
(-0.00037758 0.000319965 0)
(-0.000362183 0.00028877 7.0942e-24)
(-0.000338241 0.00025262 -7.92802e-27)
(-0.000304405 0.000211163 8.97566e-24)
(-0.000262497 0.000163959 0)
(-0.000193374 0.000111456 -4.9252e-24)
(-6.97069e-06 2.42921e-05 1.12699e-24)
(-2.09096e-05 6.95906e-05 2.30215e-24)
(-3.56429e-05 0.000113057 4.35632e-24)
(-5.11665e-05 0.000154526 -1.24194e-23)
(-6.74486e-05 0.000193834 5.86331e-24)
(-8.44549e-05 0.000230822 -5.56016e-24)
(-0.000102141 0.000265334 1.40071e-23)
(-0.000120439 0.000297222 -6.59527e-24)
(-0.000139257 0.000326352 6.2107e-24)
(-0.000158474 0.000352596 0)
(-0.000177937 0.00037584 0)
(-0.000197461 0.000395983 7.69642e-24)
(-0.000216823 0.000412931 5.80663e-27)
(-0.000235757 0.000426603 -4.46893e-24)
(-0.000253956 0.000436924 1.30718e-26)
(-0.000271062 0.000443823 -1.62209e-26)
(-0.000286665 0.000447229 -7.21503e-24)
(-0.000300299 0.000447069 3.35461e-24)
(-0.000311436 0.000443256 -3.10507e-24)
(-0.000319485 0.00043569 2.90026e-24)
(-0.000323784 0.000424253 -1.06765e-23)
(-0.000323602 0.00040879 -9.9108e-24)
(-0.000318125 0.000389114 4.58091e-24)
(-0.000306452 0.000364999 8.44399e-24)
(-0.000287596 0.000336173 -3.89656e-24)
(-0.000260458 0.000302332 -3.56028e-24)
(-0.000223907 0.00026313 0)
(-0.000176274 0.000218226 -5.99012e-24)
(-0.00012096 0.000166647 0)
(-3.43122e-05 0.000111894 7.41964e-24)
(-7.88574e-06 2.51009e-05 -2.22602e-24)
(-2.33431e-05 7.19907e-05 6.97042e-24)
(-3.92585e-05 0.000117079 -8.78116e-24)
(-5.56097e-05 0.000160183 -2.38328e-26)
(-7.23502e-05 0.000201123 3.96417e-24)
(-8.94281e-05 0.000239721 -9.36485e-24)
(-0.000106779 0.000275803 7.06951e-24)
(-0.000124316 0.000309204 0)
(-0.000141927 0.000339767 3.15157e-24)
(-0.000159473 0.000367347 -8.83759e-24)
(-0.000176782 0.000391811 0)
(-0.000193648 0.000413038 -1.03311e-23)
(-0.00020983 0.000430917 4.82494e-24)
(-0.000225042 0.00044535 -4.52364e-24)
(-0.000238953 0.000456243 -4.17175e-24)
(-0.000251184 0.000463509 7.80761e-24)
(-0.000261298 0.000467062 0)
(-0.000268805 0.000466812 3.39092e-24)
(-0.00027315 0.000462661 6.27522e-24)
(-0.000273717 0.000454499 -1.16428e-23)
(-0.000269817 0.000442187 5.38545e-24)
(-0.000260685 0.000425559 -4.99367e-24)
(-0.000245475 0.000404416 -4.6006e-24)
(-0.000223256 0.000378512 -4.24245e-24)
(-0.00019301 0.000347563 -1.20993e-26)
(-0.000153606 0.000311247 0)
(-0.000103942 0.000269186 -6.6291e-24)
(-4.21641e-05 0.000221143 0)
(2.82003e-05 0.00016531 0)
(0.000131228 0.00010884 5.02744e-24)
(-8.76036e-06 2.56176e-05 2.2841e-24)
(-2.56697e-05 7.35579e-05 -2.36e-24)
(-4.27127e-05 0.000119754 -1.11423e-23)
(-5.98465e-05 0.000164009 1.05641e-23)
(-7.70073e-05 0.000206126 -1.00123e-23)
(-9.41222e-05 0.000245909 1.13804e-23)
(-0.000111104 0.000283167 -7.14976e-24)
(-0.000127842 0.000317715 1.34601e-23)
(-0.000144204 0.000349379 -6.32469e-24)
(-0.000160027 0.000377995 2.95594e-24)
(-0.000175117 0.000403409 2.77207e-24)
(-0.000189246 0.000425482 -5.22804e-24)
(-0.000202151 0.000444085 0)
(-0.000213521 0.0004591 4.54028e-24)
(-0.000223 0.000470416 1.43454e-26)
(-0.000230182 0.000477929 7.89579e-24)
(-0.000234607 0.000481534 -7.3385e-24)
(-0.000235759 0.000481135 3.41661e-24)
(-0.000233059 0.000476614 -6.29368e-24)
(-0.000225859 0.000467844 1.16819e-23)
(-0.000213446 0.000454678 0)
(-0.000195023 0.000436938 0)
(-0.000169716 0.000414407 9.24317e-24)
(-0.000136565 0.000386827 4.25899e-24)
(-9.45252e-05 0.000353896 -7.86773e-24)
(-4.2444e-05 0.000315283 -3.63991e-24)
(2.08162e-05 0.000270598 6.62861e-24)
(9.69344e-05 0.00021962 6.11585e-24)
(0.000182945 0.000160177 5.60392e-24)
(0.000303174 0.00010101 -5.03584e-24)
(-9.57711e-06 2.58567e-05 -1.14795e-23)
(-2.78413e-05 7.43297e-05 2.35999e-24)
(-4.59313e-05 0.000121139 0)
(-6.37813e-05 0.000166071 0)
(-8.13074e-05 0.000208915 -8.10761e-24)
(-9.84128e-05 0.000249458 3.84703e-24)
(-0.000114984 0.000287492 0)
(-0.000130886 0.000322816 0)
(-0.000145958 0.000355237 -3.17964e-24)
(-0.000160012 0.000384572 9.00301e-24)
(-0.000172831 0.000410649 -2.47388e-26)
(-0.000184163 0.00043331 2.63675e-24)
(-0.000193714 0.000452409 -2.06237e-26)
(-0.000201145 0.000467807 -9.13735e-24)
(-0.000206075 0.000479377 8.54462e-24)
(-0.000208071 0.000486996 2.81413e-26)
(-0.000206647 0.000490548 3.67665e-24)
(-0.000201262 0.000489916 1.37261e-23)
(-0.000191309 0.000484973 -1.90619e-23)
(-0.000176116 0.000475578 0)
(-0.000154936 0.000461571 0)
(-0.000126948 0.00044276 1.00934e-23)
(-9.12506e-05 0.000418918 -4.65247e-24)
(-4.68606e-05 0.000389774 4.3047e-24)
(7.28793e-06 0.000355014 -3.95572e-24)
(7.23693e-05 0.000314296 2.18365e-23)
(0.000149531 0.000267213 -3.5364e-27)
(0.000240357 0.000213475 -9.18448e-24)
(0.000342118 0.000151045 3.17151e-26)
(0.000480114 8.90947e-05 1.0134e-23)
(-1.03211e-05 2.58372e-05 -6.97172e-24)
(-2.98165e-05 7.4356e-05 9.61628e-24)
(-4.88492e-05 0.000121305 0)
(-6.73286e-05 0.000166461 -8.66345e-24)
(-8.51473e-05 0.000209595 4.07456e-24)
(-0.000102182 0.000250481 0)
(-0.000118292 0.000288894 3.66712e-24)
(-0.000133312 0.000324616 -3.45003e-24)
(-0.000147054 0.00035744 -3.20945e-24)
(-0.0001593 0.000387167 -3.01072e-24)
(-0.000169807 0.000413609 2.81997e-24)
(-0.000178284 0.000436589 -1.05946e-23)
(-0.00018441 0.000455939 9.89336e-24)
(-0.00018782 0.000471502 4.6309e-24)
(-0.000188104 0.000483137 -8.59328e-24)
(-0.000184804 0.000490705 2.79202e-26)
(-0.000177407 0.000494076 -7.429e-24)
(-0.000165343 0.000493116 -6.87453e-24)
(-0.000147975 0.000487687 6.37194e-24)
(-0.000124603 0.000477635 5.92106e-24)
(-9.44532e-05 0.000462788 1.09762e-23)
(-5.6679e-05 0.000442944 -1.01168e-23)
(-1.0356e-05 0.000417864 0)
(4.55192e-05 0.000387269 -8.62013e-24)
(0.000112029 0.000350834 -3.99486e-24)
(0.000190362 0.000308206 -3.62169e-24)
(0.000281663 0.000258959 1.00805e-23)
(0.000387478 0.000202773 -6.15158e-24)
(0.000505067 0.000137641 -5.57452e-24)
(0.000661077 7.33949e-05 5.12688e-24)
(-1.09809e-05 2.55819e-05 -2.34328e-24)
(-3.15627e-05 7.36972e-05 2.44878e-24)
(-5.14149e-05 0.000120346 -2.32513e-24)
(-7.04192e-05 0.000165294 -2.20314e-24)
(-8.84427e-05 0.0002083 4.12106e-24)
(-0.000105333 0.000249125 1.17555e-23)
(-0.000120916 0.000287531 -1.47454e-23)
(-0.000134998 0.000323286 3.45003e-24)
(-0.000147356 0.000356165 -3.23895e-24)
(-0.000157747 0.000385955 1.22099e-23)
(-0.000165882 0.000412451 -1.14298e-23)
(-0.000171447 0.000435457 5.3221e-24)
(-0.000174089 0.000454792 -1.49556e-23)
(-0.000173414 0.000470287 -9.29245e-24)
(-0.00016898 0.000481783 1.7313e-23)
(-0.0001603 0.000489128 4.03737e-24)
(-0.000146827 0.000492175 -1.49788e-23)
(-0.000127961 0.000490777 1.38961e-23)
(-0.00010304 0.000484785 -6.43095e-24)
(-7.13323e-05 0.000474034 -5.9709e-24)
(-3.2041e-05 0.00045834 2.8545e-26)
(1.5705e-05 0.000437494 0)
(7.28507e-05 0.000411249 4.71137e-24)
(0.000140416 0.000379318 0)
(0.000219495 0.00034137 7.96981e-24)
(0.000311281 0.000297041 3.15828e-26)
(0.000416912 0.000245889 0)
(0.000537923 0.000187585 2.67291e-26)
(0.000671397 0.000120017 -5.61665e-24)
(0.000845554 5.40495e-05 5.14713e-24)
(-1.15483e-05 2.51171e-05 0)
(-3.30549e-05 7.2423e-05 -2.44878e-24)
(-5.35861e-05 0.000118367 -7.02739e-24)
(-7.29945e-05 0.000162705 1.55242e-23)
(-9.11184e-05 0.000205187 -1.25894e-23)
(-0.000107774 0.000245562 -3.92786e-24)
(-0.000122753 0.000283582 1.11556e-23)
(-0.000135828 0.000319003 -3.51888e-24)
(-0.000146742 0.000351587 3.29993e-24)
(-0.000155211 0.000381107 -6.16339e-24)
(-0.000160919 0.000407342 5.76252e-24)
(-0.000163517 0.000430087 -5.389e-24)
(-0.000162616 0.000449144 -3.98927e-26)
(-0.000157789 0.000464331 3.66011e-27)
(-0.000148562 0.000475476 4.37812e-24)
(-0.000134412 0.000482412 0)
(-0.000114763 0.000484981 7.50044e-24)
(-8.89835e-05 0.000483025 -6.95827e-24)
(-5.638e-05 0.000476382 0)
(-1.61962e-05 0.00046488 5.97055e-24)
(3.23916e-05 0.000448329 1.38325e-26)
(9.02765e-05 0.00042651 -5.11541e-24)
(0.000158421 0.000399174 -1.41742e-23)
(0.000237859 0.000366029 -8.72503e-24)
(0.000329689 0.000326738 0)
(0.000435106 0.000280935 -7.36421e-24)
(0.000555229 0.00022816 0)
(0.000691579 0.000168088 -6.20389e-24)
(0.000840989 9.83965e-05 0)
(0.00103339 3.12785e-05 -1.02211e-23)
(-1.20175e-05 2.44699e-05 0)
(-3.42742e-05 7.06071e-05 0)
(-5.53292e-05 0.000115482 0)
(-7.50042e-05 0.000158843 -8.96212e-24)
(-9.3107e-05 0.000200434 1.26795e-23)
(-0.00010942 0.000239994 -7.9947e-24)
(-0.000123699 0.000277267 3.78117e-24)
(-0.00013568 0.000312001 7.07229e-24)
(-0.000145069 0.000343949 0)
(-0.000151545 0.000372871 -6.2451e-24)
(-0.000154756 0.000398536 1.16232e-23)
(-0.000154315 0.000420727 -1.37579e-26)
(-0.000149798 0.000439236 -6.65504e-27)
(-0.000140742 0.000453869 -4.70099e-24)
(-0.000126635 0.000464441 4.40514e-24)
(-0.000106921 0.000470777 0)
(-8.09909e-05 0.000472707 -1.51631e-23)
(-4.818e-05 0.000470064 1.40411e-23)
(-7.76571e-06 0.00046268 -6.50512e-24)
(4.10366e-05 0.000450374 0)
(9.90754e-05 0.000432952 -5.56176e-24)
(0.000167264 0.000410193 5.13889e-24)
(0.000246582 0.000381845 4.72206e-24)
(0.00033807 0.000347616 4.33874e-24)
(0.000442829 0.00030717 0)
(0.000562045 0.000260138 7.41562e-24)
(0.000696795 0.000206049 0)
(0.00084861 0.000144585 0)
(0.00101399 7.31334e-05 5.78929e-24)
(0.00122469 5.44912e-06 1.0205e-23)
(-1.23853e-05 2.3667e-05 0)
(-3.52081e-05 6.83231e-05 0)
(-5.66192e-05 0.000111805 0)
(-7.64087e-05 0.00015386 9.06156e-24)
(-9.43517e-05 0.000194222 8.55703e-24)
(-0.000110195 0.000232629 -1.21379e-23)
(-0.000123658 0.000268819 3.81418e-24)
(-0.000134437 0.000302532 -7.11199e-24)
(-0.000142201 0.000333516 6.69378e-24)
(-0.000146588 0.000361522 -1.25699e-23)
(-0.000147208 0.000386313 1.91156e-26)
(-0.000143636 0.000407663 1.82288e-26)
(-0.000135409 0.000425356 5.13444e-24)
(-0.000122023 0.000439188 0)
(-0.000102931 0.000448968 -1.32394e-23)
(-7.75403e-05 0.00045451 8.21829e-24)
(-4.52056e-05 0.00045564 7.59493e-24)
(-5.22986e-06 0.000452183 -7.08045e-24)
(4.31409e-05 0.000443966 6.55407e-24)
(0.000100719 0.000430806 -6.04409e-24)
(0.000168379 0.000412505 1.11766e-23)
(0.000247052 0.000388844 -5.16138e-24)
(0.00033773 0.000359574 0)
(0.000441458 0.000324406 1.75287e-23)
(0.000559332 0.000283009 -1.61672e-23)
(0.000692507 0.000235021 8.1869e-27)
(0.000842021 0.000179958 -6.8198e-24)
(0.00100941 0.00011751 -6.2451e-24)
(0.00119076 4.47113e-05 -5.70355e-24)
(0.0014198 -2.29175e-05 0)
(-1.26506e-05 2.27343e-05 0)
(-3.58491e-05 6.56428e-05 0)
(-5.74386e-05 0.000107452 4.80582e-24)
(-7.71763e-05 0.000147906 -9.11788e-24)
(-9.48037e-05 0.000186738 -8.64713e-24)
(-0.000110031 0.000223682 1.22231e-23)
(-0.000122539 0.000258476 -3.85769e-24)
(-0.000131984 0.000290857 -7.21115e-24)
(-0.000137995 0.000320568 3.39665e-24)
(-0.00014017 0.000347358 0)
(-0.000138077 0.000370984 1.18209e-23)
(-0.000131251 0.000391216 -1.10546e-23)
(-0.000119188 0.000407834 0)
(-0.000101343 0.000420628 0)
(-7.71313e-05 0.0004294 -4.4669e-24)
(-4.59197e-05 0.000433962 -8.29222e-24)
(-7.02788e-06 0.000434136 7.68806e-24)
(4.02762e-05 0.000429743 7.08055e-24)
(9.67786e-05 0.00042061 -1.31424e-23)
(0.00016332 0.000406552 -6.09008e-24)
(0.000240798 0.000387375 5.62465e-24)
(0.000330163 0.000362865 -5.17798e-24)
(0.000432414 0.000332778 4.77937e-24)
(0.000548596 0.000296837 0)
(0.000679776 0.000254721 -8.58822e-27)
(0.000827082 0.000206077 2.23356e-23)
(0.000991494 0.000150412 -6.83508e-24)
(0.00117453 8.74317e-05 0)
(0.00137182 1.37437e-05 1.14807e-23)
(0.00161916 -5.31537e-05 -1.02356e-23)
(-1.28136e-05 2.16959e-05 0)
(-3.61934e-05 6.26339e-05 -1.03106e-23)
(-5.77745e-05 0.000102529 9.73982e-24)
(-7.72807e-05 0.000141127 4.64715e-24)
(-9.44189e-05 0.00017816 -8.75276e-24)
(-0.000108862 0.000213366 -4.09246e-24)
(-0.000120251 0.00024648 1.93656e-23)
(-0.000128202 0.000277243 -1.82125e-23)
(-0.000132302 0.000305397 1.02685e-23)
(-0.000132108 0.00033069 6.4157e-24)
(-0.000127146 0.000352881 5.99323e-24)
(-0.000116907 0.000371735 0)
(-0.000100845 0.000387034 -1.03595e-23)
(-7.83743e-05 0.000398564 9.66172e-24)
(-4.88671e-05 0.000406128 1.34214e-23)
(-1.16519e-05 0.000409537 -8.38414e-24)
(3.399e-05 0.000408611 4.66926e-26)
(8.88265e-05 0.000403175 -7.13332e-24)
(0.000153676 0.000393055 6.57856e-24)
(0.000229408 0.000378073 6.09035e-24)
(0.000316942 0.00035804 2.4113e-26)
(0.000417243 0.000332753 0)
(0.000531315 0.000301978 9.6035e-24)
(0.00066018 0.000265457 0)
(0.000804877 0.000222883 8.1291e-24)
(0.000966492 0.000173918 1.8432e-26)
(0.00114592 0.00011806 6.83754e-24)
(0.00134465 5.50402e-05 -1.03644e-26)
(0.00155776 -1.90313e-05 -2.28882e-23)
(0.00182323 -8.44619e-05 1.54208e-23)
(-1.28755e-05 2.05734e-05 0)
(-3.62391e-05 5.9358e-05 -1.04245e-23)
(-5.76166e-05 9.71369e-05 2.47047e-23)
(-7.66981e-05 0.000133659 -4.66363e-24)
(-9.31551e-05 0.000168661 0)
(-0.000106622 0.000201883 4.24289e-26)
(-0.000116702 0.000233066 1.56451e-23)
(-0.000122968 0.000261954 -1.4721e-23)
(-0.000124966 0.000288293 -6.83941e-24)
(-0.00012221 0.000311836 6.49071e-24)
(-0.000114182 0.000332343 -2.4061e-23)
(-0.00010033 0.000349584 2.80902e-23)
(-8.00633e-05 0.000363341 -2.09088e-23)
(-5.2753e-05 0.000373405 4.85714e-24)
(-1.77295e-05 0.000379581 -9.01541e-24)
(2.57198e-05 0.000381683 8.37115e-24)
(7.83531e-05 0.000379536 7.81771e-24)
(0.000140975 0.000372968 -7.17231e-24)
(0.000214436 0.000361814 6.61424e-24)
(0.000299634 0.000345903 -6.12756e-24)
(0.000397507 0.00032506 1.83355e-26)
(0.00050903 0.000299092 0)
(0.000635193 0.000267791 -9.60062e-24)
(0.000776996 0.000230915 2.00055e-26)
(0.000935437 0.000188178 1.72179e-26)
(0.00111153 0.000139262 7.48416e-24)
(0.00130606 8.36615e-05 -6.86073e-24)
(0.00152044 2.11378e-05 1.25689e-23)
(0.00174916 -5.27667e-05 1.15087e-23)
(0.0020324 -0.000115941 0)
(-1.28373e-05 1.93854e-05 1.02357e-23)
(-3.59848e-05 5.58688e-05 -2.65181e-24)
(-5.69549e-05 9.13639e-05 0)
(-7.54043e-05 0.000125625 -4.70487e-24)
(-9.09691e-05 0.000158396 0)
(-0.000103246 0.000189423 -4.18498e-24)
(-0.000111797 0.000218455 0)
(-0.000116155 0.000245243 -1.10967e-23)
(-0.000115823 0.000269542 -6.88206e-24)
(-0.000110271 0.00029111 1.95593e-23)
(-9.8939e-05 0.000309716 6.04572e-24)
(-8.12268e-05 0.000325136 -1.69394e-23)
(-5.6501e-05 0.000337157 3.49514e-26)
(-2.40885e-05 0.000345579 2.44697e-23)
(1.67238e-05 0.000350214 -3.06072e-26)
(6.66907e-05 0.000350883 -1.69038e-23)
(0.00012661 0.000347418 -7.78344e-24)
(0.000197323 0.00033966 0)
(0.000279713 0.000327453 6.65799e-24)
(0.000374701 0.00031064 6.15623e-24)
(0.000483242 0.000289061 -1.13918e-23)
(0.000606303 0.000262549 0)
(0.000744858 0.000230916 -9.66477e-24)
(0.000899875 0.000193946 -8.86033e-24)
(0.00107228 0.00015138 -8.14778e-24)
(0.00126299 0.000102926 -7.46298e-24)
(0.00147263 4.80725e-05 6.87243e-24)
(0.00170251 -1.33815e-05 -1.25625e-23)
(0.00194648 -8.65274e-05 1.62181e-26)
(0.00224681 -0.000146619 1.01959e-23)
(-1.27e-05 1.8147e-05 0)
(-3.54276e-05 5.22117e-05 -2.93448e-26)
(-5.57772e-05 8.52864e-05 -1.51808e-23)
(-7.33723e-05 0.000117134 4.76573e-24)
(-8.78136e-05 0.000147506 0)
(-9.866e-05 0.000176159 2.12484e-23)
(-0.000105434 0.000202854 -3.59731e-23)
(-0.000107627 0.000227351 7.51793e-24)
(-0.000104698 0.000249416 -1.40183e-23)
(-9.60771e-05 0.000268818 6.61489e-24)
(-8.11548e-05 0.000285338 0)
(-5.92889e-05 0.000298761 0)
(-2.97998e-05 0.000308887 -5.33327e-24)
(8.0302e-06 0.000315525 4.95445e-24)
(5.49581e-05 0.000318499 0)
(0.000111781 0.000317643 8.45962e-24)
(0.000179337 0.000312801 0)
(0.000258501 0.000303828 1.45418e-23)
(0.000350188 0.000290584 -6.72418e-24)
(0.000455339 0.00027293 0)
(0.000574907 0.000250734 -5.74952e-24)
(0.000709854 0.000223848 0)
(0.000861128 0.000192117 1.93579e-23)
(0.00102963 0.000155355 8.91414e-24)
(0.0012162 0.000113338 8.18678e-24)
(0.00142159 6.57997e-05 0)
(0.00164624 1.22245e-05 1.68155e-26)
(0.0018913 -4.75541e-05 6.30247e-24)
(0.00214995 -0.000119314 -1.15126e-23)
(0.00246629 -0.000175492 -1.01899e-23)
(-1.24632e-05 1.68699e-05 1.0466e-23)
(-3.45618e-05 4.8423e-05 -2.741e-24)
(-5.4067e-05 7.89673e-05 -5.59608e-26)
(-7.05696e-05 0.000108276 1.44593e-23)
(-8.36351e-05 0.000136113 -1.37162e-23)
(-9.27853e-05 0.000162246 -4.27193e-24)
(-9.7503e-05 0.000186449 -4.10435e-26)
(-9.72386e-05 0.000208497 -3.75334e-26)
(-9.14103e-05 0.000228171 0)
(-7.94014e-05 0.000245254 -1.32251e-23)
(-6.05596e-05 0.000259539 1.85151e-23)
(-3.41975e-05 0.000270828 -1.15389e-23)
(4.10025e-07 0.000278936 1.07118e-23)
(4.40253e-05 0.000283686 -4.9549e-24)
(9.74492e-05 0.000284919 0)
(0.000161521 0.000282484 8.57921e-24)
(0.000237116 0.000276244 -4.25068e-26)
(0.000325144 0.000266072 -7.28051e-24)
(0.000426542 0.000251847 6.73706e-24)
(0.000542257 0.000233461 -6.23589e-24)
(0.000673247 0.000210802 2.29399e-23)
(0.000820452 0.000183757 -2.11255e-23)
(0.000984769 0.000152203 9.73223e-24)
(0.00116701 0.000115997 -3.57037e-23)
(0.00136787 7.49489e-05 -1.63687e-23)
(0.00158792 2.88267e-05 2.14814e-26)
(0.00182734 -2.28978e-05 1.38042e-23)
(0.00208703 -8.03679e-05 1.88997e-23)
(0.00235954 -0.000150088 -5.77048e-24)
(0.00269023 -0.00020157 0)
(-1.21249e-05 1.55627e-05 -1.05845e-23)
(-3.33778e-05 4.45301e-05 -6.12917e-26)
(-5.1802e-05 7.24565e-05 5.13844e-24)
(-6.69563e-05 9.91273e-05 4.84527e-24)
(-7.83718e-05 0.000124319 -2.30564e-23)
(-8.55335e-05 0.000147815 3.47147e-23)
(-8.78854e-05 0.000169406 -2.44626e-23)
(-8.48379e-05 0.000188884 3.82353e-23)
(-7.57666e-05 0.000206044 -1.43421e-23)
(-6.00112e-05 0.000220691 -2.00693e-23)
(-3.68759e-05 0.000232633 1.25287e-23)
(-5.62814e-06 0.000241691 5.0268e-26)
(3.45017e-05 0.000247699 5.4484e-24)
(8.43202e-05 0.000250501 0)
(0.000144671 0.000249955 9.27843e-24)
(0.000216433 0.000245933 -8.56828e-24)
(0.000300518 0.000238317 1.59291e-23)
(0.00039786 0.000227006 -7.33275e-24)
(0.000509411 0.000211907 -6.77336e-24)
(0.000636127 0.000192936 -6.24898e-24)
(0.000778952 0.000170014 -1.72226e-23)
(0.000938785 0.000143067 2.12004e-23)
(0.00111645 0.000112012 9.73236e-24)
(0.00131263 7.67485e-05 -6.31648e-26)
(0.00152783 3.71337e-05 -2.66279e-26)
(0.00176239 -7.02904e-06 0)
(0.00201615 -5.62842e-05 3.06541e-26)
(0.00228964 -0.000110794 -2.52206e-23)
(0.0025749 -0.000177794 5.65551e-24)
(0.0029175 -0.000223936 -1.03818e-23)
(-1.16815e-05 1.42307e-05 1.11845e-26)
(-3.18608e-05 4.05527e-05 1.65253e-23)
(-4.89526e-05 6.57916e-05 0)